<?xml version="1.0" encoding="UTF-8"?>

<!-- generated on 2024-05-07 18:05:37 by Eclipse SUMO sumo Version 1.19.0
<configuration xmlns:xsi="http://www.w3.org/2001/XMLSchema-instance" xsi:noNamespaceSchemaLocation="http://sumo.dlr.de/xsd/sumoConfiguration.xsd">

    <input>
        <net-file value="Car.net.xml"/>
        <route-files value="Car.rou.xml"/>
    </input>

    <output>
        <tripinfo-output value="Case6_car_final_tripinfoooo.xml"/>
    </output>

    <time>
        <begin value="0"/>
        <end value="1000"/>
    </time>

    <processing>
        <ignore-route-errors value="True"/>
        <max-num-vehicles value="46"/>
    </processing>

</configuration>
-->

<tripinfos xmlns:xsi="http://www.w3.org/2001/XMLSchema-instance" xsi:noNamespaceSchemaLocation="http://sumo.dlr.de/xsd/tripinfo_file.xsd">
    <tripinfo id="CAR42" depart="300.00" departLane="166458245#0_0" departPos="5.10" departSpeed="0.00" departDelay="0.00" arrival="855.00" arrivalLane="166479007#3_1" arrivalPos="54.81" arrivalSpeed="19.72" duration="555.00" routeLength="2931.35" waitingTime="275.00" waitingCount="5" stopTime="0.00" timeLoss="402.13" rerouteNo="0" devices="tripinfo_CAR42" vType="CAR" speedFactor="1.01" vaporized=""/>
    <tripinfo id="CAR41" depart="290.00" departLane="166458245#0_0" departPos="5.10" departSpeed="0.00" departDelay="0.00" arrival="857.00" arrivalLane="166479007#3_1" arrivalPos="54.81" arrivalSpeed="18.79" duration="567.00" routeLength="2930.67" waitingTime="275.00" waitingCount="5" stopTime="0.00" timeLoss="413.48" rerouteNo="0" devices="tripinfo_CAR41" vType="CAR" speedFactor="0.94" vaporized=""/>
</tripinfos>
<tripinfos xmlns:xsi="http://www.w3.org/2001/XMLSchema-instance" xsi:noNamespaceSchemaLocation="http://sumo.dlr.de/xsd/tripinfo_file.xsd">
    <tripinfo id="CAR39" depart="212.00" departLane="166458245#0_0" departPos="5.10" departSpeed="0.00" departDelay="0.00" arrival="860.00" arrivalLane="166479007#3_1" arrivalPos="54.81" arrivalSpeed="12.38" duration="648.00" routeLength="2931.35" waitingTime="342.00" waitingCount="4" stopTime="0.00" timeLoss="409.93" rerouteNo="0" devices="tripinfo_CAR39" vType="CAR" speedFactor="0.94" vaporized=""/>
    <tripinfo id="CAR38" depart="184.00" departLane="166458245#0_0" departPos="5.10" departSpeed="0.00" departDelay="0.00" arrival="862.00" arrivalLane="166479007#3_1" arrivalPos="54.81" arrivalSpeed="12.23" duration="678.00" routeLength="2937.12" waitingTime="365.00" waitingCount="4" stopTime="0.00" timeLoss="440.34" rerouteNo="0" devices="tripinfo_CAR38" vType="CAR" speedFactor="1.06" vaporized=""/>
</tripinfos>
