<?xml version="1.0" encoding="UTF-8"?>

<!-- generated on 2024-05-03 01:06:51 by Eclipse SUMO sumo Version 1.19.0
<configuration xmlns:xsi="http://www.w3.org/2001/XMLSchema-instance" xsi:noNamespaceSchemaLocation="http://sumo.dlr.de/xsd/sumoConfiguration.xsd">

    <input>
        <net-file value="ElectricBRTS.net.xml"/>
        <route-files value="BRTS.route.xml"/>
    </input>

    <output>
        <emission-output value="Case5_brts_emissions.xml"/>
    </output>

    <time>
        <begin value="0"/>
        <end value="1000"/>
    </time>

    <processing>
        <ignore-route-errors value="True"/>
    </processing>

</configuration>
-->

<emission-export xmlns:xsi="http://www.w3.org/2001/XMLSchema-instance" xsi:noNamespaceSchemaLocation="http://sumo.dlr.de/xsd/emission_file.xsd">
    <timestep time="0.00"/>
    <timestep time="1.00"/>
    <timestep time="2.00"/>
    <timestep time="3.00"/>
    <timestep time="4.00"/>
    <timestep time="5.00"/>
    <timestep time="6.00"/>
    <timestep time="7.00"/>
    <timestep time="8.00"/>
    <timestep time="9.00"/>
    <timestep time="10.00"/>
    <timestep time="11.00"/>
    <timestep time="12.00"/>
    <timestep time="13.00"/>
    <timestep time="14.00"/>
    <timestep time="15.00"/>
    <timestep time="16.00"/>
    <timestep time="17.00"/>
    <timestep time="18.00"/>
    <timestep time="19.00"/>
    <timestep time="20.00"/>
    <timestep time="21.00"/>
    <timestep time="22.00"/>
    <timestep time="23.00"/>
    <timestep time="24.00"/>
    <timestep time="25.00"/>
    <timestep time="26.00"/>
    <timestep time="27.00"/>
    <timestep time="28.00"/>
    <timestep time="29.00"/>
    <timestep time="30.00"/>
    <timestep time="31.00"/>
    <timestep time="32.00"/>
    <timestep time="33.00"/>
    <timestep time="34.00"/>
    <timestep time="35.00"/>
    <timestep time="36.00"/>
    <timestep time="37.00"/>
    <timestep time="38.00"/>
    <timestep time="39.00"/>
    <timestep time="40.00"/>
    <timestep time="41.00"/>
    <timestep time="42.00"/>
    <timestep time="43.00"/>
    <timestep time="44.00"/>
    <timestep time="45.00"/>
    <timestep time="46.00"/>
    <timestep time="47.00"/>
    <timestep time="48.00"/>
    <timestep time="49.00"/>
    <timestep time="50.00">
        <vehicle id="BUS1" eclass="HBEFA3/PC_G_EU4" CO2="2624.72" CO="164.78" HC="0.81" NOx="1.20" PMx="0.07" fuel="837.22" electricity="0.00" noise="55.94" route="bus_route" type="BUS" waiting="0.00" lane="166458245#0_0" pos="12.10" speed="0.00" angle="226.74" x="2146.22" y="3060.00"/>
    </timestep>
    <timestep time="51.00">
        <vehicle id="BUS1" eclass="HBEFA3/PC_G_EU4" CO2="2627.17" CO="156.07" HC="0.77" NOx="1.19" PMx="0.06" fuel="838.00" electricity="0.00" noise="58.33" route="bus_route" type="BUS" waiting="0.00" lane="166458245#0_0" pos="12.60" speed="0.50" angle="226.74" x="2145.86" y="3059.66"/>
    </timestep>
    <timestep time="52.00">
        <vehicle id="BUS1" eclass="HBEFA3/PC_G_EU4" CO2="2634.37" CO="147.62" HC="0.73" NOx="1.18" PMx="0.06" fuel="840.29" electricity="0.00" noise="58.54" route="bus_route" type="BUS" waiting="0.00" lane="166458245#0_0" pos="13.61" speed="1.01" angle="226.74" x="2145.12" y="3058.97"/>
    </timestep>
    <timestep time="53.00">
        <vehicle id="BUS1" eclass="HBEFA3/PC_G_EU4" CO2="2657.07" CO="139.25" HC="0.70" NOx="1.18" PMx="0.06" fuel="847.53" electricity="0.00" noise="58.88" route="bus_route" type="BUS" waiting="0.00" lane="166458245#0_0" pos="15.14" speed="1.54" angle="226.74" x="2144.00" y="3057.91"/>
    </timestep>
    <timestep time="54.00">
        <vehicle id="BUS1" eclass="HBEFA3/PC_G_EU4" CO2="2684.19" CO="131.01" HC="0.66" NOx="1.18" PMx="0.06" fuel="856.18" electricity="0.00" noise="59.16" route="bus_route" type="BUS" waiting="0.00" lane="166458245#0_0" pos="17.23" speed="2.08" angle="226.74" x="2142.48" y="3056.48"/>
    </timestep>
    <timestep time="55.00">
        <vehicle id="BUS1" eclass="HBEFA3/PC_G_EU4" CO2="2759.34" CO="123.01" HC="0.62" NOx="1.19" PMx="0.06" fuel="880.14" electricity="0.00" noise="59.71" route="bus_route" type="BUS" waiting="0.00" lane="166458245#0_0" pos="19.92" speed="2.69" angle="226.74" x="2140.52" y="3054.64"/>
    </timestep>
    <timestep time="56.00">
        <vehicle id="BUS1" eclass="HBEFA3/PC_G_EU4" CO2="2809.75" CO="114.74" HC="0.59" NOx="1.20" PMx="0.05" fuel="896.22" electricity="0.00" noise="60.00" route="bus_route" type="BUS" waiting="0.00" lane="166458245#0_0" pos="23.22" speed="3.30" angle="226.74" x="2138.11" y="3052.37"/>
    </timestep>
    <timestep time="57.00">
        <vehicle id="BUS1" eclass="HBEFA3/PC_G_EU4" CO2="2780.19" CO="106.24" HC="0.55" NOx="1.17" PMx="0.05" fuel="886.79" electricity="0.00" noise="59.94" route="bus_route" type="BUS" waiting="0.00" lane="166458245#0_0" pos="27.06" speed="3.84" angle="225.22" x="2135.53" y="3049.51"/>
    </timestep>
    <timestep time="58.00">
        <vehicle id="BUS1" eclass="HBEFA3/PC_G_EU4" CO2="2667.00" CO="98.08" HC="0.51" NOx="1.11" PMx="0.05" fuel="850.69" electricity="0.00" noise="59.59" route="bus_route" type="BUS" waiting="0.00" lane="166458245#0_0" pos="31.31" speed="4.25" angle="223.18" x="2132.74" y="3046.29"/>
    </timestep>
    <timestep time="59.00">
        <vehicle id="BUS1" eclass="HBEFA3/PC_G_EU4" CO2="3108.03" CO="97.19" HC="0.51" NOx="1.30" PMx="0.05" fuel="991.35" electricity="0.00" noise="61.28" route="bus_route" type="BUS" waiting="0.00" lane="166458245#0_0" pos="36.28" speed="4.97" angle="220.97" x="2129.48" y="3042.53"/>
    </timestep>
    <timestep time="60.00">
        <vehicle id="BUS1" eclass="HBEFA3/PC_G_EU4" CO2="3252.44" CO="90.30" HC="0.49" NOx="1.35" PMx="0.06" fuel="1037.41" electricity="0.00" noise="61.77" route="bus_route" type="BUS" waiting="0.00" lane="166458245#0_0" pos="42.00" speed="5.72" angle="220.97" x="2125.72" y="3038.21"/>
    </timestep>
    <timestep time="61.00">
        <vehicle id="BUS1" eclass="HBEFA3/PC_G_EU4" CO2="2787.42" CO="75.45" HC="0.41" NOx="1.11" PMx="0.04" fuel="889.09" electricity="0.00" noise="60.66" route="bus_route" type="BUS" waiting="0.00" lane="166458245#0_0" pos="48.13" speed="6.13" angle="220.97" x="2121.69" y="3033.57"/>
    </timestep>
    <timestep time="62.00">
        <vehicle id="BUS1" eclass="HBEFA3/PC_G_EU4" CO2="3195.50" CO="76.24" HC="0.42" NOx="1.29" PMx="0.05" fuel="1019.24" electricity="0.00" noise="61.82" route="bus_route" type="BUS" waiting="0.00" lane="166458245#0_0" pos="54.88" speed="6.75" angle="220.97" x="2117.26" y="3028.46"/>
    </timestep>
    <timestep time="63.00">
        <vehicle id="BUS1" eclass="HBEFA3/PC_G_EU4" CO2="3364.86" CO="71.99" HC="0.40" NOx="1.35" PMx="0.05" fuel="1073.26" electricity="0.00" noise="62.36" route="bus_route" type="BUS" waiting="0.00" lane="166458245#0_0" pos="62.29" speed="7.41" angle="219.44" x="2112.64" y="3022.65"/>
    </timestep>
    <timestep time="64.00">
        <vehicle id="BUS1" eclass="HBEFA3/PC_G_EU4" CO2="3237.94" CO="63.15" HC="0.36" NOx="1.28" PMx="0.05" fuel="1032.77" electricity="0.00" noise="62.28" route="bus_route" type="BUS" waiting="0.00" lane="166458245#0_0" pos="70.26" speed="7.96" angle="217.62" x="2107.77" y="3016.34"/>
    </timestep>
    <timestep time="65.00">
        <vehicle id="BUS1" eclass="HBEFA3/PC_G_EU4" CO2="3073.30" CO="54.90" HC="0.32" NOx="1.19" PMx="0.04" fuel="980.26" electricity="0.00" noise="62.18" route="bus_route" type="BUS" waiting="0.00" lane="166458245#0_0" pos="78.67" speed="8.41" angle="217.62" x="2102.63" y="3009.66"/>
    </timestep>
    <timestep time="66.00">
        <vehicle id="BUS1" eclass="HBEFA3/PC_G_EU4" CO2="3979.02" CO="65.44" HC="0.39" NOx="1.60" PMx="0.06" fuel="1269.13" electricity="0.00" noise="63.89" route="bus_route" type="BUS" waiting="0.00" lane="166458245#0_0" pos="87.86" speed="9.20" angle="217.62" x="2097.00" y="3002.36"/>
    </timestep>
    <timestep time="67.00">
        <vehicle id="BUS1" eclass="HBEFA3/PC_G_EU4" CO2="3267.90" CO="46.27" HC="0.28" NOx="1.25" PMx="0.04" fuel="1042.32" electricity="0.00" noise="63.02" route="bus_route" type="BUS" waiting="0.00" lane="166458245#0_0" pos="97.52" speed="9.66" angle="217.62" x="2091.10" y="2994.70"/>
    </timestep>
    <timestep time="68.00">
        <vehicle id="BUS1" eclass="HBEFA3/PC_G_EU4" CO2="3270.89" CO="42.19" HC="0.27" NOx="1.24" PMx="0.04" fuel="1043.28" electricity="0.00" noise="63.22" route="bus_route" type="BUS" waiting="0.00" lane="166458245#0_0" pos="107.62" speed="10.10" angle="217.19" x="2084.99" y="2986.63"/>
    </timestep>
    <timestep time="69.00">
        <vehicle id="BUS1" eclass="HBEFA3/PC_G_EU4" CO2="3683.35" CO="45.66" HC="0.29" NOx="1.42" PMx="0.05" fuel="1174.83" electricity="0.00" noise="63.98" route="bus_route" type="BUS" waiting="0.00" lane="166458245#0_0" pos="118.28" speed="10.66" angle="217.04" x="2078.56" y="2978.11"/>
    </timestep>
    <timestep time="70.00">
        <vehicle id="BUS1" eclass="HBEFA3/PC_G_EU4" CO2="3317.65" CO="34.65" HC="0.23" NOx="1.24" PMx="0.04" fuel="1058.19" electricity="0.00" noise="63.74" route="bus_route" type="BUS" waiting="0.00" lane="166458245#0_0" pos="129.34" speed="11.06" angle="217.12" x="2071.87" y="2969.27"/>
    </timestep>
    <timestep time="71.00">
        <vehicle id="BUS1" eclass="HBEFA3/PC_G_EU4" CO2="3720.63" CO="38.73" HC="0.26" NOx="1.41" PMx="0.05" fuel="1186.72" electricity="0.00" noise="64.42" route="bus_route" type="BUS" waiting="0.00" lane="166458245#0_0" pos="140.91" speed="11.57" angle="217.72" x="2064.78" y="2960.10"/>
    </timestep>
    <timestep time="72.00">
        <vehicle id="BUS1" eclass="HBEFA3/PC_G_EU4" CO2="4196.62" CO="43.69" HC="0.30" NOx="1.62" PMx="0.06" fuel="1338.53" electricity="0.00" noise="65.17" route="bus_route" type="BUS" waiting="0.00" lane="166458245#0_0" pos="153.11" speed="12.20" angle="217.72" x="2057.30" y="2950.43"/>
    </timestep>
    <timestep time="73.00">
        <vehicle id="BUS1" eclass="HBEFA3/PC_G_EU4" CO2="4033.78" CO="36.43" HC="0.26" NOx="1.53" PMx="0.06" fuel="1286.59" electricity="0.00" noise="65.24" route="bus_route" type="BUS" waiting="0.00" lane="166458245#0_0" pos="165.85" speed="12.74" angle="217.72" x="2049.49" y="2940.34"/>
    </timestep>
    <timestep time="74.00">
        <vehicle id="BUS1" eclass="HBEFA3/PC_G_EU4" CO2="4885.56" CO="49.02" HC="0.34" NOx="1.92" PMx="0.08" fuel="1558.26" electricity="0.00" noise="66.31" route="bus_route" type="BUS" waiting="0.00" lane="166458245#0_0" pos="179.32" speed="13.47" angle="214.71" x="2041.75" y="2929.28"/>
    </timestep>
    <timestep time="75.00">
        <vehicle id="BUS1" eclass="HBEFA3/PC_G_EU4" CO2="3821.55" CO="24.55" HC="0.20" NOx="1.40" PMx="0.05" fuel="1218.90" electricity="0.00" noise="65.61" route="bus_route" type="BUS" waiting="0.00" lane="166458245#0_0" pos="193.21" speed="13.88" angle="214.78" x="2033.82" y="2917.86"/>
    </timestep>
    <timestep time="76.00">
        <vehicle id="BUS1" eclass="HBEFA3/PC_G_EU4" CO2="5030.12" CO="45.43" HC="0.33" NOx="1.96" PMx="0.08" fuel="1604.37" electricity="0.00" noise="66.85" route="bus_route" type="BUS" waiting="0.00" lane="166458245#0_0" pos="207.78" speed="14.58" angle="214.79" x="2025.49" y="2905.86"/>
    </timestep>
    <timestep time="77.00">
        <vehicle id="BUS1" eclass="HBEFA3/PC_G_EU4" CO2="4024.20" CO="22.56" HC="0.20" NOx="1.47" PMx="0.05" fuel="1283.53" electricity="0.00" noise="66.30" route="bus_route" type="BUS" waiting="0.00" lane="166458245#0_0" pos="222.76" speed="14.98" angle="211.70" x="2017.60" y="2893.10"/>
    </timestep>
    <timestep time="78.00">
        <vehicle id="BUS1" eclass="HBEFA3/PC_G_EU4" CO2="4529.47" CO="30.48" HC="0.25" NOx="1.70" PMx="0.07" fuel="1444.69" electricity="0.00" noise="66.87" route="bus_route" type="BUS" waiting="0.00" lane="166458245#1_0" pos="1.95" speed="15.48" angle="211.70" x="2009.41" y="2879.83"/>
    </timestep>
    <timestep time="79.00">
        <vehicle id="BUS1" eclass="HBEFA3/PC_G_EU4" CO2="4489.76" CO="27.54" HC="0.23" NOx="1.67" PMx="0.07" fuel="1432.02" electricity="0.00" noise="67.07" route="bus_route" type="BUS" waiting="0.00" lane="166458245#1_0" pos="17.89" speed="15.95" angle="211.63" x="2000.62" y="2865.58"/>
    </timestep>
    <timestep time="80.00">
        <vehicle id="BUS1" eclass="HBEFA3/PC_G_EU4" CO2="5544.14" CO="46.52" HC="0.34" NOx="2.15" PMx="0.09" fuel="1768.31" electricity="0.00" noise="68.02" route="bus_route" type="BUS" waiting="0.00" lane="166458245#1_0" pos="34.52" speed="16.62" angle="211.57" x="1991.49" y="2850.72"/>
    </timestep>
    <timestep time="81.00">
        <vehicle id="BUS1" eclass="HBEFA3/PC_G_EU4" CO2="6155.35" CO="56.49" HC="0.40" NOx="2.42" PMx="0.11" fuel="1963.26" electricity="0.00" noise="68.70" route="bus_route" type="BUS" waiting="0.00" lane="166458245#1_0" pos="51.89" speed="17.37" angle="211.24" x="1982.00" y="2835.15"/>
    </timestep>
    <timestep time="82.00">
        <vehicle id="BUS1" eclass="HBEFA3/PC_G_EU4" CO2="5671.21" CO="44.76" HC="0.34" NOx="2.18" PMx="0.10" fuel="1808.84" electricity="0.00" noise="68.66" route="bus_route" type="BUS" waiting="0.00" lane="166458245#1_0" pos="69.87" speed="17.98" angle="211.23" x="1972.22" y="2819.01"/>
    </timestep>
    <timestep time="83.00">
        <vehicle id="BUS1" eclass="HBEFA3/PC_G_EU4" CO2="0.00" CO="0.00" HC="0.00" NOx="0.00" PMx="0.00" fuel="0.00" electricity="0.00" noise="65.08" route="bus_route" type="BUS" waiting="0.00" lane="166458245#1_0" pos="86.79" speed="16.92" angle="215.46" x="1962.24" y="2804.34"/>
    </timestep>
    <timestep time="84.00">
        <vehicle id="BUS1" eclass="HBEFA3/PC_G_EU4" CO2="0.00" CO="0.00" HC="0.00" NOx="0.00" PMx="0.00" fuel="0.00" electricity="0.00" noise="59.89" route="bus_route" type="BUS" waiting="0.00" lane="166458245#1_0" pos="99.21" speed="12.42" angle="215.76" x="1954.62" y="2793.76"/>
    </timestep>
    <timestep time="85.00">
        <vehicle id="BUS1" eclass="HBEFA3/PC_G_EU4" CO2="0.00" CO="0.00" HC="0.00" NOx="0.00" PMx="0.00" fuel="0.00" electricity="0.00" noise="54.68" route="bus_route" type="BUS" waiting="0.00" lane="166458245#1_0" pos="107.48" speed="8.27" angle="215.76" x="1949.55" y="2786.72"/>
    </timestep>
    <timestep time="86.00">
        <vehicle id="BUS1" eclass="HBEFA3/PC_G_EU4" CO2="0.00" CO="0.00" HC="0.00" NOx="0.00" PMx="0.00" fuel="0.00" electricity="0.00" noise="46.41" route="bus_route" type="BUS" waiting="0.00" lane="166458245#1_0" pos="111.51" speed="4.03" angle="191.47" x="1952.72" y="2785.04"/>
    </timestep>
    <timestep time="87.00">
        <vehicle id="BUS1" eclass="HBEFA3/PC_G_EU4" CO2="2532.88" CO="161.49" HC="0.79" NOx="1.16" PMx="0.06" fuel="807.93" electricity="0.00" noise="38.60" route="bus_route" type="BUS" waiting="1.00" lane="166458245#1_0" pos="111.58" speed="0.08" angle="190.69" x="1952.80" y="2785.01"/>
    </timestep>
    <timestep time="88.00">
        <vehicle id="BUS1" eclass="HBEFA3/PC_G_EU4" CO2="2620.53" CO="164.17" HC="0.81" NOx="1.20" PMx="0.07" fuel="835.89" electricity="0.00" noise="55.73" route="bus_route" type="BUS" waiting="2.00" lane="166458245#1_0" pos="111.61" speed="0.03" angle="190.40" x="1952.83" y="2785.00"/>
    </timestep>
    <timestep time="89.00">
        <vehicle id="BUS1" eclass="HBEFA3/PC_G_EU4" CO2="2624.27" CO="164.71" HC="0.81" NOx="1.20" PMx="0.07" fuel="837.08" electricity="0.00" noise="55.83" route="bus_route" type="BUS" waiting="3.00" lane="166458245#1_0" pos="111.62" speed="0.00" angle="190.37" x="1952.83" y="2785.00"/>
    </timestep>
    <timestep time="90.00">
        <vehicle id="BUS1" eclass="HBEFA3/PC_G_EU4" CO2="2624.55" CO="164.75" HC="0.81" NOx="1.20" PMx="0.07" fuel="837.17" electricity="0.00" noise="55.93" route="bus_route" type="BUS" waiting="4.00" lane="166458245#1_0" pos="111.62" speed="0.00" angle="190.36" x="1952.83" y="2785.00"/>
    </timestep>
    <timestep time="91.00">
        <vehicle id="BUS1" eclass="HBEFA3/PC_G_EU4" CO2="2624.72" CO="164.78" HC="0.81" NOx="1.20" PMx="0.07" fuel="837.22" electricity="0.00" noise="55.93" route="bus_route" type="BUS" waiting="5.00" lane="166458245#1_0" pos="111.62" speed="0.00" angle="190.36" x="1952.83" y="2785.00"/>
    </timestep>
    <timestep time="92.00">
        <vehicle id="BUS1" eclass="HBEFA3/PC_G_EU4" CO2="2624.72" CO="164.78" HC="0.81" NOx="1.20" PMx="0.07" fuel="837.22" electricity="0.00" noise="55.94" route="bus_route" type="BUS" waiting="6.00" lane="166458245#1_0" pos="111.62" speed="0.00" angle="190.36" x="1952.83" y="2785.00"/>
    </timestep>
    <timestep time="93.00">
        <vehicle id="BUS1" eclass="HBEFA3/PC_G_EU4" CO2="2624.72" CO="164.78" HC="0.81" NOx="1.20" PMx="0.07" fuel="837.22" electricity="0.00" noise="55.94" route="bus_route" type="BUS" waiting="7.00" lane="166458245#1_0" pos="111.62" speed="0.00" angle="190.36" x="1952.83" y="2785.00"/>
    </timestep>
    <timestep time="94.00">
        <vehicle id="BUS1" eclass="HBEFA3/PC_G_EU4" CO2="2624.72" CO="164.78" HC="0.81" NOx="1.20" PMx="0.07" fuel="837.22" electricity="0.00" noise="55.94" route="bus_route" type="BUS" waiting="8.00" lane="166458245#1_0" pos="111.62" speed="0.00" angle="190.36" x="1952.83" y="2785.00"/>
    </timestep>
    <timestep time="95.00">
        <vehicle id="BUS1" eclass="HBEFA3/PC_G_EU4" CO2="2624.72" CO="164.78" HC="0.81" NOx="1.20" PMx="0.07" fuel="837.22" electricity="0.00" noise="55.94" route="bus_route" type="BUS" waiting="9.00" lane="166458245#1_0" pos="111.62" speed="0.00" angle="190.36" x="1952.83" y="2785.00"/>
    </timestep>
    <timestep time="96.00">
        <vehicle id="BUS1" eclass="HBEFA3/PC_G_EU4" CO2="2624.72" CO="164.78" HC="0.81" NOx="1.20" PMx="0.07" fuel="837.22" electricity="0.00" noise="55.94" route="bus_route" type="BUS" waiting="10.00" lane="166458245#1_0" pos="111.62" speed="0.00" angle="190.36" x="1952.83" y="2785.00"/>
    </timestep>
    <timestep time="97.00">
        <vehicle id="BUS1" eclass="HBEFA3/PC_G_EU4" CO2="2624.72" CO="164.78" HC="0.81" NOx="1.20" PMx="0.07" fuel="837.22" electricity="0.00" noise="55.94" route="bus_route" type="BUS" waiting="11.00" lane="166458245#1_0" pos="111.62" speed="0.00" angle="190.36" x="1952.83" y="2785.00"/>
    </timestep>
    <timestep time="98.00">
        <vehicle id="BUS1" eclass="HBEFA3/PC_G_EU4" CO2="2624.72" CO="164.78" HC="0.81" NOx="1.20" PMx="0.07" fuel="837.22" electricity="0.00" noise="55.94" route="bus_route" type="BUS" waiting="12.00" lane="166458245#1_0" pos="111.62" speed="0.00" angle="190.36" x="1952.83" y="2785.00"/>
    </timestep>
    <timestep time="99.00">
        <vehicle id="BUS1" eclass="HBEFA3/PC_G_EU4" CO2="2624.72" CO="164.78" HC="0.81" NOx="1.20" PMx="0.07" fuel="837.22" electricity="0.00" noise="55.94" route="bus_route" type="BUS" waiting="13.00" lane="166458245#1_0" pos="111.62" speed="0.00" angle="190.36" x="1952.83" y="2785.00"/>
    </timestep>
    <timestep time="100.00">
        <vehicle id="BUS1" eclass="HBEFA3/PC_G_EU4" CO2="2624.72" CO="164.78" HC="0.81" NOx="1.20" PMx="0.07" fuel="837.22" electricity="0.00" noise="55.94" route="bus_route" type="BUS" waiting="14.00" lane="166458245#1_0" pos="111.62" speed="0.00" angle="190.36" x="1952.83" y="2785.00"/>
        <vehicle id="BUS2" eclass="HBEFA3/PC_G_EU4" CO2="2624.72" CO="164.78" HC="0.81" NOx="1.20" PMx="0.07" fuel="837.22" electricity="0.00" noise="55.94" route="bus_route" type="BUS" waiting="0.00" lane="166458245#0_0" pos="12.10" speed="0.00" angle="226.74" x="2146.22" y="3060.00"/>
    </timestep>
    <timestep time="101.00">
        <vehicle id="BUS1" eclass="HBEFA3/PC_G_EU4" CO2="2624.72" CO="164.78" HC="0.81" NOx="1.20" PMx="0.07" fuel="837.22" electricity="0.00" noise="55.94" route="bus_route" type="BUS" waiting="15.00" lane="166458245#1_0" pos="111.62" speed="0.00" angle="190.36" x="1952.83" y="2785.00"/>
        <vehicle id="BUS2" eclass="HBEFA3/PC_G_EU4" CO2="2621.72" CO="156.69" HC="0.77" NOx="1.19" PMx="0.06" fuel="836.26" electricity="0.00" noise="58.13" route="bus_route" type="BUS" waiting="0.00" lane="166458245#0_0" pos="12.56" speed="0.46" angle="226.74" x="2145.89" y="3059.69"/>
    </timestep>
    <timestep time="102.00">
        <vehicle id="BUS1" eclass="HBEFA3/PC_G_EU4" CO2="2624.72" CO="164.78" HC="0.81" NOx="1.20" PMx="0.07" fuel="837.22" electricity="0.00" noise="55.94" route="bus_route" type="BUS" waiting="16.00" lane="166458245#1_0" pos="111.62" speed="0.00" angle="190.36" x="1952.83" y="2785.00"/>
        <vehicle id="BUS2" eclass="HBEFA3/PC_G_EU4" CO2="2726.54" CO="145.67" HC="0.73" NOx="1.22" PMx="0.06" fuel="869.69" electricity="0.00" noise="59.83" route="bus_route" type="BUS" waiting="0.00" lane="166458245#0_0" pos="13.79" speed="1.24" angle="226.74" x="2144.99" y="3058.84"/>
    </timestep>
    <timestep time="103.00">
        <vehicle id="BUS1" eclass="HBEFA3/PC_G_EU4" CO2="2624.72" CO="164.78" HC="0.81" NOx="1.20" PMx="0.07" fuel="837.22" electricity="0.00" noise="55.94" route="bus_route" type="BUS" waiting="17.00" lane="166458245#1_0" pos="111.62" speed="0.00" angle="190.36" x="1952.83" y="2785.00"/>
        <vehicle id="BUS2" eclass="HBEFA3/PC_G_EU4" CO2="2711.94" CO="135.18" HC="0.68" NOx="1.19" PMx="0.06" fuel="865.03" electricity="0.00" noise="59.41" route="bus_route" type="BUS" waiting="0.00" lane="166458245#0_0" pos="15.65" speed="1.86" angle="226.74" x="2143.63" y="3057.56"/>
    </timestep>
    <timestep time="104.00">
        <vehicle id="BUS1" eclass="HBEFA3/PC_G_EU4" CO2="2636.52" CO="155.23" HC="0.77" NOx="1.19" PMx="0.06" fuel="840.98" electricity="0.00" noise="58.62" route="bus_route" type="BUS" waiting="0.00" lane="166458245#1_0" pos="112.18" speed="0.56" angle="184.49" x="1953.39" y="2784.80"/>
        <vehicle id="BUS2" eclass="HBEFA3/PC_G_EU4" CO2="2766.89" CO="126.15" HC="0.64" NOx="1.20" PMx="0.06" fuel="882.55" electricity="0.00" noise="59.76" route="bus_route" type="BUS" waiting="0.00" lane="166458245#0_0" pos="18.15" speed="2.50" angle="226.74" x="2141.81" y="3055.85"/>
    </timestep>
    <timestep time="105.00">
        <vehicle id="BUS1" eclass="HBEFA3/PC_G_EU4" CO2="2703.98" CO="144.77" HC="0.72" NOx="1.21" PMx="0.06" fuel="862.50" electricity="0.00" noise="59.51" route="bus_route" type="BUS" waiting="0.00" lane=":cluster_1779260093_1779260094_1779260095_1779260096_10_0" pos="0.82" speed="1.26" angle="179.63" x="1953.30" y="2784.00"/>
        <vehicle id="BUS2" eclass="HBEFA3/PC_G_EU4" CO2="2692.18" CO="117.01" HC="0.59" NOx="1.15" PMx="0.05" fuel="858.72" electricity="0.00" noise="59.35" route="bus_route" type="BUS" waiting="0.00" lane="166458245#0_0" pos="21.14" speed="2.99" angle="226.74" x="2139.62" y="3053.79"/>
    </timestep>
    <timestep time="106.00">
        <vehicle id="BUS1" eclass="HBEFA3/PC_G_EU4" CO2="2675.45" CO="135.15" HC="0.68" NOx="1.18" PMx="0.06" fuel="853.39" electricity="0.00" noise="59.07" route="bus_route" type="BUS" waiting="0.00" lane=":cluster_1779260093_1779260094_1779260095_1779260096_10_0" pos="2.64" speed="1.81" angle="179.84" x="1952.16" y="2782.59"/>
        <vehicle id="BUS2" eclass="HBEFA3/PC_G_EU4" CO2="3029.52" CO="112.18" HC="0.58" NOx="1.29" PMx="0.06" fuel="966.31" electricity="0.00" noise="61.01" route="bus_route" type="BUS" waiting="0.00" lane="166458245#0_0" pos="24.93" speed="3.79" angle="226.25" x="2136.94" y="3051.12"/>
    </timestep>
    <timestep time="107.00">
        <vehicle id="BUS1" eclass="HBEFA3/PC_G_EU4" CO2="2768.70" CO="126.78" HC="0.64" NOx="1.20" PMx="0.06" fuel="883.13" electricity="0.00" noise="59.78" route="bus_route" type="BUS" waiting="0.00" lane=":cluster_1779260093_1779260094_1779260095_1779260096_10_0" pos="5.10" speed="2.46" angle="180.14" x="1950.61" y="2780.68"/>
        <vehicle id="BUS2" eclass="HBEFA3/PC_G_EU4" CO2="2839.32" CO="100.31" HC="0.52" NOx="1.19" PMx="0.05" fuel="905.65" electricity="0.00" noise="60.27" route="bus_route" type="BUS" waiting="0.00" lane="166458245#0_0" pos="29.27" speed="4.34" angle="224.16" x="2134.08" y="3047.84"/>
    </timestep>
    <timestep time="108.00">
        <vehicle id="BUS1" eclass="HBEFA3/PC_G_EU4" CO2="2646.05" CO="117.48" HC="0.60" NOx="1.13" PMx="0.05" fuel="844.01" electricity="0.00" noise="59.06" route="bus_route" type="BUS" waiting="0.00" lane=":cluster_1779260093_1779260094_1779260095_1779260096_10_0" pos="8.00" speed="2.90" angle="188.06" x="1948.78" y="2778.43"/>
        <vehicle id="BUS2" eclass="HBEFA3/PC_G_EU4" CO2="2920.12" CO="93.97" HC="0.49" NOx="1.21" PMx="0.05" fuel="931.42" electricity="0.00" noise="60.66" route="bus_route" type="BUS" waiting="0.00" lane="166458245#0_0" pos="34.19" speed="4.92" angle="221.79" x="2130.85" y="3044.11"/>
    </timestep>
    <timestep time="109.00">
        <vehicle id="BUS1" eclass="HBEFA3/PC_G_EU4" CO2="2924.25" CO="112.62" HC="0.58" NOx="1.25" PMx="0.06" fuel="932.74" electricity="0.00" noise="60.55" route="bus_route" type="BUS" waiting="0.00" lane=":cluster_1779260093_1779260094_1779260095_1779260096_10_0" pos="11.60" speed="3.61" angle="217.06" x="1946.51" y="2775.63"/>
        <vehicle id="BUS2" eclass="HBEFA3/PC_G_EU4" CO2="3274.52" CO="91.14" HC="0.49" NOx="1.36" PMx="0.06" fuel="1044.45" electricity="0.00" noise="61.83" route="bus_route" type="BUS" waiting="0.00" lane="166458245#0_0" pos="39.88" speed="5.69" angle="220.97" x="2127.11" y="3039.81"/>
    </timestep>
    <timestep time="110.00">
        <vehicle id="BUS1" eclass="HBEFA3/PC_G_EU4" CO2="2697.37" CO="101.52" HC="0.52" NOx="1.13" PMx="0.05" fuel="860.37" electricity="0.00" noise="59.65" route="bus_route" type="BUS" waiting="0.00" lane="166479614_0" pos="3.01" speed="4.05" angle="211.16" x="1945.49" y="2771.83"/>
        <vehicle id="BUS2" eclass="HBEFA3/PC_G_EU4" CO2="3382.91" CO="83.85" HC="0.46" NOx="1.39" PMx="0.06" fuel="1079.01" electricity="0.00" noise="62.20" route="bus_route" type="BUS" waiting="0.00" lane="166458245#0_0" pos="46.32" speed="6.44" angle="220.97" x="2122.88" y="3034.94"/>
    </timestep>
    <timestep time="111.00">
        <vehicle id="BUS1" eclass="HBEFA3/PC_G_EU4" CO2="2839.07" CO="96.86" HC="0.51" NOx="1.18" PMx="0.05" fuel="905.57" electricity="0.00" noise="60.32" route="bus_route" type="BUS" waiting="0.00" lane="166479614_0" pos="7.60" speed="4.59" angle="198.68" x="1944.92" y="2767.28"/>
        <vehicle id="BUS2" eclass="HBEFA3/PC_G_EU4" CO2="3168.08" CO="72.41" HC="0.40" NOx="1.27" PMx="0.05" fuel="1010.49" electricity="0.00" noise="61.84" route="bus_route" type="BUS" waiting="0.00" lane="166458245#0_0" pos="53.35" speed="7.03" angle="220.97" x="2118.27" y="3029.62"/>
    </timestep>
    <timestep time="112.00">
        <vehicle id="BUS1" eclass="HBEFA3/PC_G_EU4" CO2="2954.87" CO="91.27" HC="0.48" NOx="1.22" PMx="0.05" fuel="942.50" electricity="0.00" noise="60.83" route="bus_route" type="BUS" waiting="0.00" lane="166479614_0" pos="12.78" speed="5.18" angle="187.07" x="1944.29" y="2762.14"/>
        <vehicle id="BUS2" eclass="HBEFA3/PC_G_EU4" CO2="2929.51" CO="62.49" HC="0.35" NOx="1.15" PMx="0.04" fuel="934.40" electricity="0.00" noise="61.51" route="bus_route" type="BUS" waiting="0.00" lane="166458245#0_0" pos="60.81" speed="7.46" angle="219.85" x="2113.55" y="3023.83"/>
    </timestep>
    <timestep time="113.00">
        <vehicle id="BUS1" eclass="HBEFA3/PC_G_EU4" CO2="3110.93" CO="86.07" HC="0.46" NOx="1.28" PMx="0.05" fuel="992.27" electricity="0.00" noise="61.40" route="bus_route" type="BUS" waiting="0.00" lane="166479614_0" pos="18.60" speed="5.82" angle="187.25" x="1943.53" y="2756.38"/>
        <vehicle id="BUS2" eclass="HBEFA3/PC_G_EU4" CO2="3286.20" CO="63.43" HC="0.36" NOx="1.30" PMx="0.05" fuel="1048.16" electricity="0.00" noise="62.39" route="bus_route" type="BUS" waiting="0.00" lane="166458245#0_0" pos="68.83" speed="8.03" angle="217.62" x="2108.64" y="3017.46"/>
    </timestep>
    <timestep time="114.00">
        <vehicle id="BUS1" eclass="HBEFA3/PC_G_EU4" CO2="2919.52" CO="75.99" HC="0.41" NOx="1.17" PMx="0.04" fuel="931.22" electricity="0.00" noise="61.05" route="bus_route" type="BUS" waiting="0.00" lane="166479614_0" pos="24.91" speed="6.31" angle="191.87" x="1941.81" y="2750.32"/>
        <vehicle id="BUS2" eclass="HBEFA3/PC_G_EU4" CO2="3732.48" CO="64.93" HC="0.38" NOx="1.49" PMx="0.06" fuel="1190.50" electricity="0.00" noise="63.38" route="bus_route" type="BUS" waiting="0.00" lane="166458245#0_0" pos="77.58" speed="8.75" angle="217.62" x="2103.29" y="3010.52"/>
    </timestep>
    <timestep time="115.00">
        <vehicle id="BUS1" eclass="HBEFA3/PC_G_EU4" CO2="2973.78" CO="71.12" HC="0.39" NOx="1.19" PMx="0.04" fuel="948.52" electricity="0.00" noise="61.35" route="bus_route" type="BUS" waiting="0.00" lane="166479614_0" pos="31.71" speed="6.80" angle="195.86" x="1939.96" y="2743.78"/>
        <vehicle id="BUS2" eclass="HBEFA3/PC_G_EU4" CO2="3947.84" CO="61.86" HC="0.37" NOx="1.57" PMx="0.06" fuel="1259.19" electricity="0.00" noise="63.92" route="bus_route" type="BUS" waiting="0.00" lane="166458245#0_0" pos="87.08" speed="9.49" angle="217.62" x="2097.49" y="3002.99"/>
    </timestep>
    <timestep time="116.00">
        <vehicle id="BUS1" eclass="HBEFA3/PC_G_EU4" CO2="3339.58" CO="71.12" HC="0.40" NOx="1.34" PMx="0.05" fuel="1065.19" electricity="0.00" noise="62.31" route="bus_route" type="BUS" waiting="0.00" lane="166479614_0" pos="39.14" speed="7.44" angle="195.86" x="1937.92" y="2736.63"/>
        <vehicle id="BUS2" eclass="HBEFA3/PC_G_EU4" CO2="4091.98" CO="57.85" HC="0.36" NOx="1.62" PMx="0.06" fuel="1305.16" electricity="0.00" noise="64.34" route="bus_route" type="BUS" waiting="0.00" lane="166458245#0_0" pos="97.31" speed="10.23" angle="217.62" x="2091.23" y="2994.87"/>
    </timestep>
    <timestep time="117.00">