<?xml version="1.0" encoding="UTF-8"?>

<!-- generated on 2024-04-16 17:05:56 by Eclipse SUMO sumo Version 1.19.0
<configuration xmlns:xsi="http://www.w3.org/2001/XMLSchema-instance" xsi:noNamespaceSchemaLocation="http://sumo.dlr.de/xsd/sumoConfiguration.xsd">

    <input>
        <net-file value="final.net.xml"/>
        <route-files value="final.rou.xml"/>
    </input>

    <output>
        <emission-output value="AMTS_emissions.xml"/>
    </output>

    <time>
        <begin value="0"/>
        <end value="1000"/>
    </time>

    <processing>
        <ignore-route-errors value="True"/>
        <max-num-vehicles value="3"/>
    </processing>

</configuration>
-->

<emission-export xmlns:xsi="http://www.w3.org/2001/XMLSchema-instance" xsi:noNamespaceSchemaLocation="http://sumo.dlr.de/xsd/emission_file.xsd">
    <timestep time="0.00">
        <vehicle id="0" eclass="HBEFA3/PC_G_EU4" CO2="2624.72" CO="164.78" HC="0.81" NOx="1.20" PMx="0.07" fuel="837.22" electricity="0.00" noise="55.94" route="!0" type="DEFAULT_VEHTYPE" waiting="0.00" lane="167463858#7_0" pos="5.10" speed="0.00" angle="86.87" x="1700.91" y="492.21"/>
    </timestep>
    <timestep time="1.00">
        <vehicle id="0" eclass="HBEFA3/PC_G_EU4" CO2="3044.17" CO="147.60" HC="0.74" NOx="1.36" PMx="0.07" fuel="970.99" electricity="0.00" noise="63.18" route="!0" type="DEFAULT_VEHTYPE" waiting="0.00" lane="167463858#7_0" pos="6.61" speed="1.51" angle="86.87" x="1702.42" y="492.29"/>
        <vehicle id="1" eclass="HBEFA3/PC_G_EU4" CO2="2624.72" CO="164.78" HC="0.81" NOx="1.20" PMx="0.07" fuel="837.22" electricity="0.00" noise="55.94" route="!1" type="DEFAULT_VEHTYPE" waiting="0.00" lane="-451813228_0" pos="5.10" speed="0.00" angle="268.87" x="1997.79" y="976.07"/>
    </timestep>
    <timestep time="2.00">
        <vehicle id="0" eclass="HBEFA3/PC_G_EU4" CO2="4353.38" CO="140.75" HC="0.74" NOx="1.92" PMx="0.09" fuel="1388.55" electricity="0.00" noise="66.99" route="!0" type="DEFAULT_VEHTYPE" waiting="0.00" lane="167463858#7_0" pos="10.31" speed="3.70" angle="86.87" x="1706.11" y="492.49"/>
        <vehicle id="1" eclass="HBEFA3/PC_G_EU4" CO2="4005.83" CO="151.29" HC="0.78" NOx="1.79" PMx="0.09" fuel="1277.71" electricity="0.00" noise="68.01" route="!1" type="DEFAULT_VEHTYPE" waiting="0.00" lane="-451813228_0" pos="7.62" speed="2.52" angle="268.87" x="1995.27" y="976.02"/>
        <vehicle id="2" eclass="HBEFA3/PC_G_EU4" CO2="2624.72" CO="164.78" HC="0.81" NOx="1.20" PMx="0.07" fuel="837.22" electricity="0.00" noise="55.94" route="!2" type="DEFAULT_VEHTYPE" waiting="0.00" lane="177264617#8_0" pos="5.10" speed="0.00" angle="75.14" x="1681.55" y="1387.97"/>
    </timestep>
    <timestep time="3.00">
        <vehicle id="0" eclass="HBEFA3/PC_G_EU4" CO2="6050.16" CO="142.44" HC="0.79" NOx="2.65" PMx="0.13" fuel="1929.73" electricity="0.00" noise="69.22" route="!0" type="DEFAULT_VEHTYPE" waiting="0.00" lane="167463858#7_0" pos="16.46" speed="6.15" angle="84.13" x="1712.23" y="493.07"/>
        <vehicle id="1" eclass="HBEFA3/PC_G_EU4" CO2="3983.26" CO="126.58" HC="0.67" NOx="1.73" PMx="0.08" fuel="1270.50" electricity="0.00" noise="64.78" route="!1" type="DEFAULT_VEHTYPE" waiting="0.00" lane="-451813228_0" pos="11.77" speed="4.15" angle="268.87" x="1991.12" y="975.94"/>
        <vehicle id="2" eclass="HBEFA3/PC_G_EU4" CO2="3518.08" CO="148.19" HC="0.76" NOx="1.57" PMx="0.08" fuel="1122.15" electricity="0.00" noise="65.90" route="!2" type="DEFAULT_VEHTYPE" waiting="0.00" lane="177264617#8_0" pos="7.18" speed="2.08" angle="75.14" x="1683.56" y="1388.50"/>
    </timestep>
    <timestep time="4.00">
        <vehicle id="0" eclass="HBEFA3/PC_G_EU4" CO2="6257.25" CO="123.62" HC="0.71" NOx="2.70" PMx="0.13" fuel="1995.77" electricity="0.00" noise="68.07" route="!0" type="DEFAULT_VEHTYPE" waiting="0.00" lane="167463858#7_0" pos="24.57" speed="8.12" angle="81.51" x="1720.26" y="494.27"/>
        <vehicle id="1" eclass="HBEFA3/PC_G_EU4" CO2="4443.10" CO="115.03" HC="0.63" NOx="1.91" PMx="0.09" fuel="1417.16" electricity="0.00" noise="65.14" route="!1" type="DEFAULT_VEHTYPE" waiting="0.00" lane="-451813228_0" pos="17.47" speed="5.70" angle="272.41" x="1985.42" y="976.15"/>
        <vehicle id="2" eclass="HBEFA3/PC_G_EU4" CO2="5322.22" CO="147.02" HC="0.80" NOx="2.35" PMx="0.11" fuel="1697.56" electricity="0.00" noise="69.14" route="!2" type="DEFAULT_VEHTYPE" waiting="0.00" lane="177264617#8_0" pos="11.84" speed="4.66" angle="75.14" x="1688.07" y="1389.70"/>
    </timestep>
    <timestep time="5.00">
        <vehicle id="0" eclass="HBEFA3/PC_G_EU4" CO2="6549.48" CO="112.04" HC="0.67" NOx="2.79" PMx="0.13" fuel="2088.97" electricity="0.00" noise="67.93" route="!0" type="DEFAULT_VEHTYPE" waiting="0.00" lane="167463858#7_0" pos="34.42" speed="9.85" angle="81.51" x="1729.99" y="495.72"/>
        <vehicle id="1" eclass="HBEFA3/PC_G_EU4" CO2="7508.79" CO="148.18" HC="0.85" NOx="3.29" PMx="0.16" fuel="2394.95" electricity="0.00" noise="70.49" route="!1" type="DEFAULT_VEHTYPE" waiting="0.00" lane="-451813228_0" pos="25.70" speed="8.23" angle="272.41" x="1977.20" y="976.50"/>
        <vehicle id="2" eclass="HBEFA3/PC_G_EU4" CO2="4267.73" CO="107.30" HC="0.59" NOx="1.82" PMx="0.08" fuel="1361.23" electricity="0.00" noise="64.50" route="!2" type="DEFAULT_VEHTYPE" waiting="0.00" lane="177264617#8_0" pos="17.86" speed="6.02" angle="75.14" x="1693.89" y="1391.24"/>
    </timestep>
    <timestep time="6.00">
        <vehicle id="0" eclass="HBEFA3/PC_G_EU4" CO2="6399.95" CO="96.22" HC="0.59" NOx="2.69" PMx="0.12" fuel="2041.28" electricity="0.00" noise="67.53" route="!0" type="DEFAULT_VEHTYPE" waiting="0.00" lane="167463858#7_0" pos="45.71" speed="11.29" angle="81.51" x="1741.16" y="497.39"/>
        <vehicle id="1" eclass="HBEFA3/PC_G_EU4" CO2="6241.40" CO="105.77" HC="0.63" NOx="2.65" PMx="0.12" fuel="1990.71" electricity="0.00" noise="67.44" route="!1" type="DEFAULT_VEHTYPE" waiting="0.00" lane="-451813228_0" pos="35.54" speed="9.84" angle="272.41" x="1967.37" y="976.91"/>
        <vehicle id="2" eclass="HBEFA3/PC_G_EU4" CO2="6797.18" CO="133.62" HC="0.77" NOx="2.95" PMx="0.14" fuel="2167.98" electricity="0.00" noise="69.08" route="!2" type="DEFAULT_VEHTYPE" waiting="0.00" lane="177264617#8_0" pos="26.08" speed="8.22" angle="75.14" x="1701.83" y="1393.35"/>
    </timestep>
    <timestep time="7.00">
        <vehicle id="0" eclass="HBEFA3/PC_G_EU4" CO2="9190.71" CO="138.90" HC="0.85" NOx="3.95" PMx="0.19" fuel="2931.38" electricity="0.00" noise="70.73" route="!0" type="DEFAULT_VEHTYPE" waiting="0.00" lane="167463858#7_0" pos="58.99" speed="13.28" angle="81.51" x="1754.30" y="499.35"/>
        <vehicle id="1" eclass="HBEFA3/PC_G_EU4" CO2="7921.62" CO="124.08" HC="0.75" NOx="3.39" PMx="0.16" fuel="2526.61" electricity="0.00" noise="69.48" route="!1" type="DEFAULT_VEHTYPE" waiting="0.00" lane="-451813228_0" pos="47.26" speed="11.72" angle="272.41" x="1955.67" y="977.41"/>
        <vehicle id="2" eclass="HBEFA3/PC_G_EU4" CO2="8332.35" CO="142.85" HC="0.85" NOx="3.62" PMx="0.17" fuel="2657.61" electricity="0.00" noise="70.47" route="!2" type="DEFAULT_VEHTYPE" waiting="0.00" lane="177264617#8_0" pos="36.57" speed="10.49" angle="75.14" x="1711.97" y="1396.04"/>
    </timestep>
    <timestep time="8.00">
        <vehicle id="0" eclass="HBEFA3/PC_G_EU4" CO2="11524.39" CO="174.35" HC="1.07" NOx="5.00" PMx="0.25" fuel="3675.70" electricity="0.00" noise="72.80" route="!0" type="DEFAULT_VEHTYPE" waiting="0.00" lane="167463858#7_0" pos="74.50" speed="15.51" angle="81.51" x="1769.64" y="501.64"/>
        <vehicle id="1" eclass="HBEFA3/PC_G_EU4" CO2="0.00" CO="0.00" HC="0.00" NOx="0.00" PMx="0.00" fuel="0.00" electricity="0.00" noise="55.22" route="!1" type="DEFAULT_VEHTYPE" waiting="0.00" lane="-451813228_0" pos="55.72" speed="8.46" angle="272.41" x="1947.22" y="977.76"/>
        <vehicle id="2" eclass="HBEFA3/PC_G_EU4" CO2="7412.24" CO="110.37" HC="0.68" NOx="3.14" PMx="0.15" fuel="2364.14" electricity="0.00" noise="68.77" route="!2" type="DEFAULT_VEHTYPE" waiting="0.00" lane="177264617#8_0" pos="48.71" speed="12.14" angle="75.14" x="1723.70" y="1399.16"/>
    </timestep>
    <timestep time="9.00">
        <vehicle id="0" eclass="HBEFA3/PC_G_EU4" CO2="10945.28" CO="155.24" HC="0.97" NOx="4.68" PMx="0.23" fuel="3490.99" electricity="0.00" noise="72.14" route="!0" type="DEFAULT_VEHTYPE" waiting="0.00" lane="167463858#7_0" pos="91.83" speed="17.33" angle="79.90" x="1786.73" y="504.47"/>
        <vehicle id="1" eclass="HBEFA3/PC_G_EU4" CO2="0.00" CO="0.00" HC="0.00" NOx="0.00" PMx="0.00" fuel="0.00" electricity="0.00" noise="50.34" route="!1" type="DEFAULT_VEHTYPE" waiting="0.00" lane="-451813228_0" pos="61.08" speed="5.36" angle="272.41" x="1941.86" y="977.99"/>
        <vehicle id="2" eclass="HBEFA3/PC_G_EU4" CO2="6981.40" CO="92.20" HC="0.59" NOx="2.91" PMx="0.13" fuel="2226.73" electricity="0.00" noise="68.32" route="!2" type="DEFAULT_VEHTYPE" waiting="0.00" lane="177264617#8_0" pos="62.18" speed="13.47" angle="75.14" x="1736.72" y="1402.61"/>
    </timestep>
    <timestep time="10.00">
        <vehicle id="0" eclass="HBEFA3/PC_G_EU4" CO2="14513.23" CO="223.65" HC="1.37" NOx="6.31" PMx="0.33" fuel="4628.98" electricity="0.00" noise="74.86" route="!0" type="DEFAULT_VEHTYPE" waiting="0.00" lane="167463858#7_0" pos="111.40" speed="19.57" angle="79.90" x="1806.00" y="507.90"/>
        <vehicle id="1" eclass="HBEFA3/PC_G_EU4" CO2="0.00" CO="0.00" HC="0.00" NOx="0.00" PMx="0.00" fuel="0.00" electricity="0.00" noise="48.83" route="!1" type="DEFAULT_VEHTYPE" waiting="0.00" lane=":4486273636_9_0" pos="1.69" speed="3.19" angle="235.88" x="1940.46" y="975.73"/>
        <vehicle id="2" eclass="HBEFA3/PC_G_EU4" CO2="0.00" CO="0.00" HC="0.00" NOx="0.00" PMx="0.00" fuel="0.00" electricity="0.00" noise="62.77" route="!2" type="DEFAULT_VEHTYPE" waiting="0.00" lane="177264617#8_0" pos="75.12" speed="12.94" angle="75.14" x="1749.23" y="1405.93"/>
    </timestep>
    <timestep time="11.00">
        <vehicle id="0" eclass="HBEFA3/PC_G_EU4" CO2="13683.20" CO="205.54" HC="1.27" NOx="5.88" PMx="0.31" fuel="4364.24" electricity="0.00" noise="74.29" route="!0" type="DEFAULT_VEHTYPE" waiting="0.00" lane="167463858#7_0" pos="132.81" speed="21.41" angle="79.90" x="1827.08" y="511.66"/>
        <vehicle id="1" eclass="HBEFA3/PC_G_EU4" CO2="0.00" CO="0.00" HC="0.00" NOx="0.00" PMx="0.00" fuel="0.00" electricity="0.00" noise="55.09" route="!1" type="DEFAULT_VEHTYPE" waiting="0.00" lane="451813228_0" pos="1.17" speed="2.72" angle="147.93" x="1942.83" y="974.74"/>
        <vehicle id="2" eclass="HBEFA3/PC_G_EU4" CO2="2421.91" CO="1.49" HC="0.06" NOx="0.77" PMx="0.01" fuel="772.49" electricity="0.00" noise="64.05" route="!2" type="DEFAULT_VEHTYPE" waiting="0.00" lane="177264617#8_0" pos="88.11" speed="12.99" angle="75.14" x="1761.79" y="1409.26"/>
    </timestep>
    <timestep time="12.00">
        <vehicle id="0" eclass="HBEFA3/PC_G_EU4" CO2="19634.45" CO="331.22" HC="2.00" NOx="8.63" PMx="0.47" fuel="6262.38" electricity="0.00" noise="78.02" route="!0" type="DEFAULT_VEHTYPE" waiting="0.00" lane="167463858#7_0" pos="156.72" speed="23.91" angle="79.90" x="1850.62" y="515.85"/>
        <vehicle id="1" eclass="HBEFA3/PC_G_EU4" CO2="4680.64" CO="132.75" HC="0.71" NOx="2.05" PMx="0.10" fuel="1492.93" electricity="0.00" noise="66.74" route="!1" type="DEFAULT_VEHTYPE" waiting="0.00" lane="451813228_0" pos="5.91" speed="4.74" angle="92.41" x="1947.57" y="974.54"/>
        <vehicle id="2" eclass="HBEFA3/PC_G_EU4" CO2="0.00" CO="0.00" HC="0.00" NOx="0.00" PMx="0.00" fuel="0.00" electricity="0.00" noise="62.72" route="!2" type="DEFAULT_VEHTYPE" waiting="0.00" lane="177264617#8_0" pos="100.70" speed="12.59" angle="75.14" x="1773.96" y="1412.49"/>
    </timestep>
    <timestep time="13.00">
        <vehicle id="0" eclass="HBEFA3/PC_G_EU4" CO2="19456.97" CO="334.60" HC="2.01" NOx="8.49" PMx="0.47" fuel="6205.78" electricity="0.00" noise="77.88" route="!0" type="DEFAULT_VEHTYPE" waiting="0.00" lane="167463858#7_0" pos="182.82" speed="26.10" angle="79.42" x="1876.28" y="520.58"/>
        <vehicle id="1" eclass="HBEFA3/PC_G_EU4" CO2="5250.01" CO="120.74" HC="0.67" NOx="2.27" PMx="0.10" fuel="1674.52" electricity="0.00" noise="66.76" route="!1" type="DEFAULT_VEHTYPE" waiting="0.00" lane="451813228_0" pos="12.48" speed="6.57" angle="92.41" x="1954.13" y="974.27"/>
        <vehicle id="2" eclass="HBEFA3/PC_G_EU4" CO2="0.00" CO="0.00" HC="0.00" NOx="0.00" PMx="0.00" fuel="0.00" electricity="0.00" noise="54.34" route="!2" type="DEFAULT_VEHTYPE" waiting="0.00" lane="177264617#8_0" pos="108.78" speed="8.09" angle="75.14" x="1781.77" y="1414.57"/>
    </timestep>
    <timestep time="14.00">
        <vehicle id="0" eclass="HBEFA3/PC_G_EU4" CO2="22072.89" CO="400.01" HC="2.37" NOx="9.68" PMx="0.54" fuel="7040.13" electricity="0.00" noise="79.30" route="!0" type="DEFAULT_VEHTYPE" waiting="0.00" lane=":3433845972_0_0" pos="3.97" speed="28.37" angle="79.41" x="1904.17" y="525.79"/>
        <vehicle id="1" eclass="HBEFA3/PC_G_EU4" CO2="7525.17" CO="141.36" HC="0.82" NOx="3.28" PMx="0.16" fuel="2400.17" electricity="0.00" noise="70.01" route="!1" type="DEFAULT_VEHTYPE" waiting="0.00" lane="451813228_0" pos="21.39" speed="8.91" angle="92.41" x="1963.03" y="973.89"/>
        <vehicle id="2" eclass="HBEFA3/PC_G_EU4" CO2="0.00" CO="0.00" HC="0.00" NOx="0.00" PMx="0.00" fuel="0.00" electricity="0.00" noise="46.51" route="!2" type="DEFAULT_VEHTYPE" waiting="0.00" lane="177264617#8_0" pos="112.80" speed="4.01" angle="75.14" x="1785.65" y="1415.60"/>
    </timestep>
    <timestep time="15.00">
        <vehicle id="0" eclass="HBEFA3/PC_G_EU4" CO2="3582.24" CO="18.02" HC="0.17" NOx="0.96" PMx="0.06" fuel="1142.59" electricity="0.00" noise="72.68" route="!0" type="DEFAULT_VEHTYPE" waiting="0.00" lane="167463858#8_0" pos="22.22" speed="28.15" angle="79.39" x="1931.84" y="530.97"/>
        <vehicle id="1" eclass="HBEFA3/PC_G_EU4" CO2="9667.36" CO="162.35" HC="0.97" NOx="4.22" PMx="0.21" fuel="3083.41" electricity="0.00" noise="71.96" route="!1" type="DEFAULT_VEHTYPE" waiting="0.00" lane="451813228_0" pos="32.82" speed="11.43" angle="92.41" x="1974.45" y="973.41"/>
        <vehicle id="2" eclass="HBEFA3/PC_G_EU4" CO2="4939.50" CO="123.31" HC="0.68" NOx="2.14" PMx="0.10" fuel="1575.49" electricity="0.00" noise="66.45" route="!2" type="DEFAULT_VEHTYPE" waiting="0.00" lane=":cluster_10316609547_1877191625_12_0" pos="5.14" speed="5.85" angle="65.75" x="1791.02" y="1417.89"/>
    </timestep>
    <timestep time="16.00">
        <vehicle id="0" eclass="HBEFA3/PC_G_EU4" CO2="12109.35" CO="199.03" HC="1.21" NOx="4.96" PMx="0.29" fuel="3862.29" electricity="0.00" noise="75.19" route="!0" type="DEFAULT_VEHTYPE" waiting="0.00" lane="167463858#8_0" pos="51.25" speed="29.03" angle="79.86" x="1960.41" y="536.14"/>
        <vehicle id="1" eclass="HBEFA3/PC_G_EU4" CO2="4388.11" CO="48.24" HC="0.32" NOx="1.72" PMx="0.07" fuel="1399.61" electricity="0.00" noise="65.33" route="!1" type="DEFAULT_VEHTYPE" waiting="0.00" lane="451813228_0" pos="44.94" speed="12.12" angle="92.41" x="1986.56" y="972.90"/>
        <vehicle id="2" eclass="HBEFA3/PC_G_EU4" CO2="6721.24" CO="133.82" HC="0.77" NOx="2.92" PMx="0.14" fuel="2143.76" electricity="0.00" noise="69.04" route="!2" type="DEFAULT_VEHTYPE" waiting="0.00" lane=":cluster_10316609547_1877191625_12_0" pos="13.19" speed="8.06" angle="62.17" x="1798.19" y="1421.46"/>
    </timestep>
    <timestep time="17.00">
        <vehicle id="0" eclass="HBEFA3/PC_G_EU4" CO2="0.00" CO="0.00" HC="0.00" NOx="0.00" PMx="0.00" fuel="0.00" electricity="0.00" noise="69.54" route="!0" type="DEFAULT_VEHTYPE" waiting="0.00" lane="167463858#8_0" pos="76.36" speed="25.11" angle="81.87" x="1985.17" y="540.26"/>
        <vehicle id="1" eclass="HBEFA3/PC_G_EU4" CO2="0.00" CO="0.00" HC="0.00" NOx="0.00" PMx="0.00" fuel="0.00" electricity="0.00" noise="57.27" route="!1" type="DEFAULT_VEHTYPE" waiting="0.00" lane="451813228_0" pos="54.62" speed="9.68" angle="88.88" x="1996.24" y="972.84"/>
        <vehicle id="2" eclass="HBEFA3/PC_G_EU4" CO2="8339.07" CO="144.16" HC="0.86" NOx="3.62" PMx="0.17" fuel="2659.76" electricity="0.00" noise="70.54" route="!2" type="DEFAULT_VEHTYPE" waiting="0.00" lane=":cluster_10316609547_1877191625_12_0" pos="23.55" speed="10.36" angle="43.09" x="1805.27" y="1429.02"/>
    </timestep>
    <timestep time="18.00">
        <vehicle id="0" eclass="HBEFA3/PC_G_EU4" CO2="0.00" CO="0.00" HC="0.00" NOx="0.00" PMx="0.00" fuel="0.00" electricity="0.00" noise="66.76" route="!0" type="DEFAULT_VEHTYPE" waiting="0.00" lane="167463858#8_0" pos="96.97" speed="20.61" angle="81.87" x="2005.57" y="543.17"/>
        <vehicle id="1" eclass="HBEFA3/PC_G_EU4" CO2="0.00" CO="0.00" HC="0.00" NOx="0.00" PMx="0.00" fuel="0.00" electricity="0.00" noise="48.99" route="!1" type="DEFAULT_VEHTYPE" waiting="0.00" lane="451813228_0" pos="59.80" speed="5.18" angle="88.88" x="2001.42" y="972.94"/>
        <vehicle id="2" eclass="HBEFA3/PC_G_EU4" CO2="10216.33" CO="163.59" HC="0.99" NOx="4.45" PMx="0.22" fuel="3258.50" electricity="0.00" noise="72.10" route="!2" type="DEFAULT_VEHTYPE" waiting="0.00" lane=":cluster_10316609547_1877191625_12_0" pos="36.31" speed="12.76" angle="20.48" x="1809.84" y="1440.90"/>
    </timestep>
    <timestep time="19.00">
        <vehicle id="0" eclass="HBEFA3/PC_G_EU4" CO2="0.00" CO="0.00" HC="0.00" NOx="0.00" PMx="0.00" fuel="0.00" electricity="0.00" noise="63.38" route="!0" type="DEFAULT_VEHTYPE" waiting="0.00" lane="167463858#8_0" pos="113.08" speed="16.11" angle="81.87" x="2021.52" y="545.45"/>
        <vehicle id="1" eclass="HBEFA3/PC_G_EU4" CO2="4990.24" CO="112.51" HC="0.63" NOx="2.14" PMx="0.10" fuel="1591.67" electricity="0.00" noise="65.99" route="!1" type="DEFAULT_VEHTYPE" waiting="0.00" lane=":cluster_1788495796_4486273641_8_0" pos="5.27" speed="6.81" angle="108.85" x="2007.86" y="971.31"/>
        <vehicle id="2" eclass="HBEFA3/PC_G_EU4" CO2="8734.91" CO="122.45" HC="0.77" NOx="3.71" PMx="0.18" fuel="2786.00" electricity="0.00" noise="70.14" route="!2" type="DEFAULT_VEHTYPE" waiting="0.00" lane=":cluster_10316609547_1877191625_12_0" pos="50.75" speed="14.44" angle="3.45" x="1810.71" y="1455.32"/>
    </timestep>
    <timestep time="20.00">
        <vehicle id="0" eclass="HBEFA3/PC_G_EU4" CO2="0.00" CO="0.00" HC="0.00" NOx="0.00" PMx="0.00" fuel="0.00" electricity="0.00" noise="59.00" route="!0" type="DEFAULT_VEHTYPE" waiting="0.00" lane="167463858#8_0" pos="124.69" speed="11.61" angle="94.66" x="2033.06" y="545.59"/>
        <vehicle id="1" eclass="HBEFA3/PC_G_EU4" CO2="7399.40" CO="137.28" HC="0.80" NOx="3.21" PMx="0.15" fuel="2360.06" electricity="0.00" noise="69.69" route="!1" type="DEFAULT_VEHTYPE" waiting="0.00" lane=":cluster_1788495796_4486273641_8_0" pos="14.32" speed="9.06" angle="165.18" x="2011.57" y="963.29"/>
        <vehicle id="2" eclass="HBEFA3/PC_G_EU4" CO2="6439.64" CO="70.09" HC="0.47" NOx="2.60" PMx="0.12" fuel="2053.93" electricity="0.00" noise="68.24" route="!2" type="DEFAULT_VEHTYPE" waiting="0.00" lane="167452390#3_1" pos="14.97" speed="15.42" angle="357.12" x="1809.98" y="1470.81"/>
    </timestep>
    <timestep time="21.00">
        <vehicle id="0" eclass="HBEFA3/PC_G_EU4" CO2="0.00" CO="0.00" HC="0.00" NOx="0.00" PMx="0.00" fuel="0.00" electricity="0.00" noise="52.75" route="!0" type="DEFAULT_VEHTYPE" waiting="0.00" lane="167463858#8_0" pos="131.80" speed="7.11" angle="94.66" x="2040.15" y="545.02"/>
        <vehicle id="1" eclass="HBEFA3/PC_G_EU4" CO2="1989.00" CO="26.33" HC="0.16" NOx="0.66" PMx="0.01" fuel="634.42" electricity="0.00" noise="60.92" route="!1" type="DEFAULT_VEHTYPE" waiting="0.00" lane=":cluster_1788495796_4486273641_8_0" pos="23.34" speed="9.01" angle="180.54" x="2012.05" y="954.33"/>
        <vehicle id="2" eclass="HBEFA3/PC_G_EU4" CO2="9540.48" CO="127.51" HC="0.81" NOx="4.03" PMx="0.20" fuel="3042.93" electricity="0.00" noise="70.99" route="!2" type="DEFAULT_VEHTYPE" waiting="0.00" lane="167452390#3_1" pos="31.94" speed="16.97" angle="357.12" x="1809.13" y="1487.86"/>
    </timestep>
    <timestep time="22.00">
        <vehicle id="0" eclass="HBEFA3/PC_G_EU4" CO2="0.00" CO="0.00" HC="0.00" NOx="0.00" PMx="0.00" fuel="0.00" electricity="0.00" noise="52.72" route="!0" type="DEFAULT_VEHTYPE" waiting="0.00" lane=":1788567647_2_0" pos="1.68" speed="5.35" angle="82.07" x="2045.27" y="545.65"/>
        <vehicle id="1" eclass="HBEFA3/PC_G_EU4" CO2="2303.34" CO="31.91" HC="0.20" NOx="0.81" PMx="0.02" fuel="734.68" electricity="0.00" noise="61.40" route="!1" type="DEFAULT_VEHTYPE" waiting="0.00" lane="167454806#6_0" pos="5.93" speed="9.10" angle="184.60" x="2011.55" y="945.25"/>
        <vehicle id="2" eclass="HBEFA3/PC_G_EU4" CO2="10909.18" CO="151.08" HC="0.95" NOx="4.63" PMx="0.23" fuel="3479.48" electricity="0.00" noise="72.19" route="!2" type="DEFAULT_VEHTYPE" waiting="0.00" lane="167452390#3_1" pos="50.56" speed="18.62" angle="36.15" x="1818.05" y="1503.61"/>
    </timestep>
    <timestep time="23.00">
        <vehicle id="0" eclass="HBEFA3/PC_G_EU4" CO2="2427.62" CO="75.55" HC="0.40" NOx="0.96" PMx="0.03" fuel="774.33" electricity="0.00" noise="59.44" route="!0" type="DEFAULT_VEHTYPE" waiting="0.00" lane=":1788567644_1_0" pos="2.15" speed="5.55" angle="20.62" x="2047.41" y="550.64"/>
        <vehicle id="1" eclass="HBEFA3/PC_G_EU4" CO2="6066.02" CO="95.80" HC="0.58" NOx="2.55" PMx="0.11" fuel="1934.77" electricity="0.00" noise="67.10" route="!1" type="DEFAULT_VEHTYPE" waiting="0.00" lane="167454806#6_0" pos="16.46" speed="10.53" angle="184.60" x="2010.70" y="934.75"/>
        <vehicle id="2" eclass="HBEFA3/PC_G_EU4" CO2="13244.92" CO="196.67" HC="1.22" NOx="5.69" PMx="0.30" fuel="4224.46" electricity="0.00" noise="73.95" route="!2" type="DEFAULT_VEHTYPE" waiting="0.00" lane="167452390#3_1" pos="71.04" speed="20.49" angle="36.15" x="1830.21" y="1520.24"/>
    </timestep>
    <timestep time="24.00">
        <vehicle id="0" eclass="HBEFA3/PC_G_EU4" CO2="2871.76" CO="78.61" HC="0.42" NOx="1.16" PMx="0.04" fuel="915.99" electricity="0.00" noise="60.83" route="!0" type="DEFAULT_VEHTYPE" waiting="0.00" lane="167467446#0_0" pos="2.65" speed="6.02" angle="334.52" x="2045.11" y="556.13"/>
        <vehicle id="1" eclass="HBEFA3/PC_G_EU4" CO2="11173.70" CO="180.71" HC="1.09" NOx="4.89" PMx="0.24" fuel="3563.85" electricity="0.00" noise="73.12" route="!1" type="DEFAULT_VEHTYPE" waiting="0.00" lane=":1788495804_0_0" pos="11.75" speed="13.13" angle="207.94" x="2006.01" y="922.61"/>
        <vehicle id="2" eclass="HBEFA3/PC_G_EU4" CO2="12249.37" CO="176.29" HC="1.10" NOx="5.19" PMx="0.27" fuel="3906.93" electricity="0.00" noise="73.50" route="!2" type="DEFAULT_VEHTYPE" waiting="0.00" lane="167452390#3_1" pos="93.04" speed="22.00" angle="52.58" x="1844.53" y="1536.87"/>
    </timestep>
    <timestep time="25.00">
        <vehicle id="0" eclass="HBEFA3/PC_G_EU4" CO2="5606.36" CO="114.19" HC="0.65" NOx="2.40" PMx="0.11" fuel="1788.17" electricity="0.00" noise="66.92" route="!0" type="DEFAULT_VEHTYPE" waiting="0.00" lane="167467446#0_0" pos="10.40" speed="7.76" angle="330.86" x="2041.33" y="562.91"/>
        <vehicle id="1" eclass="HBEFA3/PC_G_EU4" CO2="9653.54" CO="138.47" HC="0.86" NOx="4.13" PMx="0.20" fuel="3079.00" electricity="0.00" noise="71.03" route="!1" type="DEFAULT_VEHTYPE" waiting="0.00" lane="-167467448#3_0" pos="4.21" speed="14.98" angle="225.58" x="1996.56" y="911.08"/>
        <vehicle id="2" eclass="HBEFA3/PC_G_EU4" CO2="16883.46" CO="274.90" HC="1.67" NOx="7.32" PMx="0.40" fuel="5384.96" electricity="0.00" noise="76.37" route="!2" type="DEFAULT_VEHTYPE" waiting="0.00" lane="167452390#3_1" pos="117.09" speed="24.05" angle="52.58" x="1863.73" y="1551.56"/>
    </timestep>
    <timestep time="26.00">
        <vehicle id="0" eclass="HBEFA3/PC_G_EU4" CO2="7176.94" CO="125.86" HC="0.74" NOx="3.09" PMx="0.15" fuel="2289.10" electricity="0.00" noise="68.97" route="!0" type="DEFAULT_VEHTYPE" waiting="0.00" lane="167467446#0_0" pos="20.16" speed="9.75" angle="313.03" x="2034.68" y="569.94"/>
        <vehicle id="1" eclass="HBEFA3/PC_G_EU4" CO2="9447.40" CO="127.12" HC="0.81" NOx="3.99" PMx="0.20" fuel="3013.25" electricity="0.00" noise="70.88" route="!1" type="DEFAULT_VEHTYPE" waiting="0.00" lane="-167467448#2_0" pos="1.09" speed="16.56" angle="253.80" x="1981.54" y="904.63"/>
        <vehicle id="2" eclass="HBEFA3/PC_G_EU4" CO2="19025.46" CO="325.99" HC="1.96" NOx="8.29" PMx="0.46" fuel="6068.15" electricity="0.00" noise="77.65" route="!2" type="DEFAULT_VEHTYPE" waiting="0.00" lane="167452390#3_1" pos="143.26" speed="26.16" angle="52.14" x="1884.61" y="1567.58"/>
    </timestep>
    <timestep time="27.00">
        <vehicle id="0" eclass="HBEFA3/PC_G_EU4" CO2="7764.43" CO="121.77" HC="0.74" NOx="3.32" PMx="0.16" fuel="2476.47" electricity="0.00" noise="69.30" route="!0" type="DEFAULT_VEHTYPE" waiting="0.00" lane="167467446#0_0" pos="31.76" speed="11.60" angle="313.03" x="2026.20" y="577.85"/>
        <vehicle id="1" eclass="HBEFA3/PC_G_EU4" CO2="15944.58" CO="253.74" HC="1.55" NOx="7.00" PMx="0.37" fuel="5085.51" electricity="0.00" noise="76.02" route="!1" type="DEFAULT_VEHTYPE" waiting="0.00" lane="-167467448#2_0" pos="20.24" speed="19.15" angle="252.09" x="1963.32" y="898.75"/>
        <vehicle id="2" eclass="HBEFA3/PC_G_EU4" CO2="9693.14" CO="136.98" HC="0.87" NOx="3.87" PMx="0.22" fuel="3091.64" electricity="0.00" noise="73.70" route="!2" type="DEFAULT_VEHTYPE" waiting="0.00" lane="167452390#3_1" pos="170.12" speed="26.86" angle="52.01" x="1905.90" y="1584.21"/>
    </timestep>
    <timestep time="28.00">
        <vehicle id="0" eclass="HBEFA3/PC_G_EU4" CO2="7092.82" CO="97.44" HC="0.61" NOx="2.97" PMx="0.14" fuel="2262.26" electricity="0.00" noise="68.40" route="!0" type="DEFAULT_VEHTYPE" waiting="0.00" lane="167467446#0_0" pos="44.78" speed="13.02" angle="313.03" x="2016.68" y="586.74"/>
        <vehicle id="1" eclass="HBEFA3/PC_G_EU4" CO2="6487.11" CO="58.12" HC="0.42" NOx="2.52" PMx="0.12" fuel="2069.07" electricity="0.00" noise="69.82" route="!1" type="DEFAULT_VEHTYPE" waiting="0.00" lane="-167467448#2_0" pos="40.04" speed="19.80" angle="252.09" x="1944.48" y="892.66"/>
        <vehicle id="2" eclass="HBEFA3/PC_G_EU4" CO2="9636.62" CO="139.08" HC="0.88" NOx="3.83" PMx="0.22" fuel="3073.61" electricity="0.00" noise="73.90" route="!2" type="DEFAULT_VEHTYPE" waiting="0.00" lane="167452390#3_1" pos="197.63" speed="27.51" angle="33.72" x="1926.36" y="1602.48"/>
    </timestep>
    <timestep time="29.00">
        <vehicle id="0" eclass="HBEFA3/PC_G_EU4" CO2="7425.59" CO="95.90" HC="0.61" NOx="3.09" PMx="0.14" fuel="2368.40" electricity="0.00" noise="68.87" route="!0" type="DEFAULT_VEHTYPE" waiting="0.00" lane="167467446#0_0" pos="59.15" speed="14.37" angle="313.03" x="2006.18" y="596.54"/>
        <vehicle id="1" eclass="HBEFA3/PC_G_EU4" CO2="2330.75" CO="0.00" HC="0.00" NOx="0.56" PMx="0.01" fuel="743.41" electricity="0.00" noise="68.08" route="!1" type="DEFAULT_VEHTYPE" waiting="0.00" lane="-167467448#2_0" pos="59.69" speed="19.65" angle="252.09" x="1925.78" y="886.61"/>
        <vehicle id="2" eclass="HBEFA3/PC_G_EU4" CO2="0.00" CO="0.00" HC="0.00" NOx="0.00" PMx="0.00" fuel="0.00" electricity="0.00" noise="69.31" route="!2" type="DEFAULT_VEHTYPE" waiting="0.00" lane="167452390#3_1" pos="222.20" speed="24.57" angle="24.09" x="1938.40" y="1623.95"/>
    </timestep>
    <timestep time="30.00">
        <vehicle id="0" eclass="HBEFA3/PC_G_EU4" CO2="12713.58" CO="193.89" HC="1.19" NOx="5.53" PMx="0.28" fuel="4054.99" electricity="0.00" noise="73.71" route="!0" type="DEFAULT_VEHTYPE" waiting="0.00" lane="167467446#0_0" pos="75.83" speed="16.68" angle="313.03" x="1993.98" y="607.92"/>
        <vehicle id="1" eclass="HBEFA3/PC_G_EU4" CO2="3124.46" CO="0.00" HC="0.02" NOx="0.93" PMx="0.03" fuel="996.56" electricity="0.00" noise="68.35" route="!1" type="DEFAULT_VEHTYPE" waiting="0.00" lane="-167467448#2_0" pos="79.34" speed="19.65" angle="253.68" x="1906.96" y="880.97"/>
        <vehicle id="2" eclass="HBEFA3/PC_G_EU4" CO2="0.00" CO="0.00" HC="0.00" NOx="0.00" PMx="0.00" fuel="0.00" electricity="0.00" noise="66.39" route="!2" type="DEFAULT_VEHTYPE" waiting="0.00" lane=":cluster_1788465344_1788465346_1788465349_1788465350_#4more_9_1" pos="12.05" speed="20.07" angle="23.94" x="1947.38" y="1641.67"/>
    </timestep>
    <timestep time="31.00">
        <vehicle id="0" eclass="HBEFA3/PC_G_EU4" CO2="12109.22" CO="175.87" HC="1.10" NOx="5.20" PMx="0.27" fuel="3862.23" electricity="0.00" noise="73.07" route="!0" type="DEFAULT_VEHTYPE" waiting="0.00" lane="167467446#0_0" pos="94.41" speed="18.58" angle="313.03" x="1980.40" y="620.60"/>
        <vehicle id="1" eclass="HBEFA3/PC_G_EU4" CO2="7072.49" CO="69.66" HC="0.49" NOx="2.78" PMx="0.13" fuel="2255.78" electricity="0.00" noise="70.32" route="!1" type="DEFAULT_VEHTYPE" waiting="0.00" lane="-167467448#2_0" pos="99.71" speed="20.37" angle="253.68" x="1887.41" y="875.25"/>
        <vehicle id="2" eclass="HBEFA3/PC_G_EU4" CO2="0.00" CO="0.00" HC="0.00" NOx="0.00" PMx="0.00" fuel="0.00" electricity="0.00" noise="62.91" route="!2" type="DEFAULT_VEHTYPE" waiting="0.00" lane="167450221_1" pos="12.89" speed="15.57" angle="2.40" x="1948.69" y="1657.02"/>
    </timestep>
    <timestep time="32.00">
        <vehicle id="0" eclass="HBEFA3/PC_G_EU4" CO2="15201.86" CO="236.84" HC="1.45" NOx="6.61" PMx="0.35" fuel="4848.62" electricity="0.00" noise="75.29" route="!0" type="DEFAULT_VEHTYPE" waiting="0.00" lane="167467446#0_0" pos="115.19" speed="20.78" angle="313.03" x="1965.21" y="634.78"/>