<?xml version="1.0" encoding="UTF-8"?>

<!-- generated on 2024-04-21 09:17:44 by Eclipse SUMO sumo Version 1.19.0
<configuration xmlns:xsi="http://www.w3.org/2001/XMLSchema-instance" xsi:noNamespaceSchemaLocation="http://sumo.dlr.de/xsd/sumoConfiguration.xsd">

    <input>
        <net-file value="final.net.xml"/>
        <route-files value="BRTS.route.xml"/>
    </input>

    <output>
        <emission-output value="AMTSBRTS_BRTS_emissions.xml"/>
    </output>

    <time>
        <begin value="500"/>
        <end value="1000"/>
    </time>

    <processing>
        <ignore-route-errors value="True"/>
    </processing>

    <emissions>
        <device.emissions.probability value="0.10"/>
    </emissions>

</configuration>
-->

<emission-export xmlns:xsi="http://www.w3.org/2001/XMLSchema-instance" xsi:noNamespaceSchemaLocation="http://sumo.dlr.de/xsd/emission_file.xsd">
    <timestep time="500.00"/>
    <timestep time="501.00"/>
    <timestep time="502.00"/>
    <timestep time="503.00"/>
    <timestep time="504.00"/>
    <timestep time="505.00"/>
    <timestep time="506.00"/>
    <timestep time="507.00"/>
    <timestep time="508.00"/>
    <timestep time="509.00"/>
    <timestep time="510.00"/>
    <timestep time="511.00"/>
    <timestep time="512.00"/>
    <timestep time="513.00"/>
    <timestep time="514.00"/>
    <timestep time="515.00"/>
    <timestep time="516.00"/>
    <timestep time="517.00"/>
    <timestep time="518.00"/>
    <timestep time="519.00"/>
    <timestep time="520.00"/>
    <timestep time="521.00"/>
    <timestep time="522.00"/>
    <timestep time="523.00"/>
    <timestep time="524.00"/>
    <timestep time="525.00"/>
    <timestep time="526.00"/>
    <timestep time="527.00"/>
    <timestep time="528.00"/>
    <timestep time="529.00"/>
    <timestep time="530.00"/>
    <timestep time="531.00"/>
    <timestep time="532.00"/>
    <timestep time="533.00"/>
    <timestep time="534.00"/>
    <timestep time="535.00"/>
    <timestep time="536.00"/>
    <timestep time="537.00"/>
    <timestep time="538.00"/>
    <timestep time="539.00"/>
    <timestep time="540.00"/>
    <timestep time="541.00"/>
    <timestep time="542.00"/>
    <timestep time="543.00"/>
    <timestep time="544.00"/>
    <timestep time="545.00"/>
    <timestep time="546.00"/>
    <timestep time="547.00"/>
    <timestep time="548.00"/>
    <timestep time="549.00"/>
    <timestep time="550.00"/>
    <timestep time="551.00"/>
    <timestep time="552.00"/>
    <timestep time="553.00"/>
    <timestep time="554.00"/>
    <timestep time="555.00"/>
    <timestep time="556.00"/>
    <timestep time="557.00"/>
    <timestep time="558.00"/>
    <timestep time="559.00"/>
    <timestep time="560.00"/>
    <timestep time="561.00"/>
    <timestep time="562.00"/>
    <timestep time="563.00"/>
    <timestep time="564.00"/>
    <timestep time="565.00"/>
    <timestep time="566.00"/>
    <timestep time="567.00"/>
    <timestep time="568.00"/>
    <timestep time="569.00"/>
    <timestep time="570.00"/>
    <timestep time="571.00"/>
    <timestep time="572.00"/>
    <timestep time="573.00"/>
    <timestep time="574.00"/>
    <timestep time="575.00"/>
    <timestep time="576.00"/>
    <timestep time="577.00"/>
    <timestep time="578.00"/>
    <timestep time="579.00"/>
    <timestep time="580.00"/>
    <timestep time="581.00"/>
    <timestep time="582.00"/>
    <timestep time="583.00"/>
    <timestep time="584.00"/>
    <timestep time="585.00"/>
    <timestep time="586.00"/>
    <timestep time="587.00"/>
    <timestep time="588.00"/>
    <timestep time="589.00"/>
    <timestep time="590.00"/>
    <timestep time="591.00"/>
    <timestep time="592.00"/>
    <timestep time="593.00"/>
    <timestep time="594.00"/>
    <timestep time="595.00"/>
    <timestep time="596.00"/>
    <timestep time="597.00"/>
    <timestep time="598.00"/>
    <timestep time="599.00"/>
    <timestep time="600.00"/>
    <timestep time="601.00"/>
    <timestep time="602.00"/>
    <timestep time="603.00"/>
    <timestep time="604.00"/>
    <timestep time="605.00"/>
    <timestep time="606.00"/>
    <timestep time="607.00"/>
    <timestep time="608.00"/>
    <timestep time="609.00"/>
    <timestep time="610.00"/>
    <timestep time="611.00"/>
    <timestep time="612.00"/>
    <timestep time="613.00"/>
    <timestep time="614.00"/>
    <timestep time="615.00"/>
    <timestep time="616.00"/>
    <timestep time="617.00"/>
    <timestep time="618.00"/>
    <timestep time="619.00"/>
    <timestep time="620.00"/>
    <timestep time="621.00"/>
    <timestep time="622.00"/>
    <timestep time="623.00"/>
    <timestep time="624.00"/>
    <timestep time="625.00"/>
    <timestep time="626.00"/>
    <timestep time="627.00"/>
    <timestep time="628.00"/>
    <timestep time="629.00"/>
    <timestep time="630.00"/>
    <timestep time="631.00"/>
    <timestep time="632.00"/>
    <timestep time="633.00"/>
    <timestep time="634.00"/>
    <timestep time="635.00"/>
    <timestep time="636.00"/>
    <timestep time="637.00"/>
    <timestep time="638.00"/>
    <timestep time="639.00"/>
    <timestep time="640.00"/>
    <timestep time="641.00"/>
    <timestep time="642.00"/>
    <timestep time="643.00"/>
    <timestep time="644.00"/>
    <timestep time="645.00"/>
    <timestep time="646.00"/>
    <timestep time="647.00"/>
    <timestep time="648.00"/>
    <timestep time="649.00"/>
    <timestep time="650.00"/>
    <timestep time="651.00"/>
    <timestep time="652.00"/>
    <timestep time="653.00"/>
    <timestep time="654.00"/>
    <timestep time="655.00"/>
    <timestep time="656.00"/>
    <timestep time="657.00"/>
    <timestep time="658.00"/>
    <timestep time="659.00"/>
    <timestep time="660.00"/>
    <timestep time="661.00"/>
    <timestep time="662.00"/>
    <timestep time="663.00"/>
    <timestep time="664.00"/>
    <timestep time="665.00"/>
    <timestep time="666.00"/>
    <timestep time="667.00"/>
    <timestep time="668.00"/>
    <timestep time="669.00"/>
    <timestep time="670.00"/>
    <timestep time="671.00"/>
    <timestep time="672.00"/>
    <timestep time="673.00"/>
    <timestep time="674.00"/>
    <timestep time="675.00"/>
    <timestep time="676.00"/>
    <timestep time="677.00"/>
    <timestep time="678.00"/>
    <timestep time="679.00"/>
    <timestep time="680.00"/>
    <timestep time="681.00"/>
    <timestep time="682.00"/>
    <timestep time="683.00"/>
    <timestep time="684.00"/>
    <timestep time="685.00"/>
    <timestep time="686.00"/>
    <timestep time="687.00"/>
    <timestep time="688.00"/>
    <timestep time="689.00"/>
    <timestep time="690.00"/>
    <timestep time="691.00"/>
    <timestep time="692.00"/>
    <timestep time="693.00"/>
    <timestep time="694.00"/>
    <timestep time="695.00"/>
    <timestep time="696.00"/>
    <timestep time="697.00"/>
    <timestep time="698.00"/>
    <timestep time="699.00"/>
    <timestep time="700.00"/>
    <timestep time="701.00"/>
    <timestep time="702.00"/>
    <timestep time="703.00"/>
    <timestep time="704.00"/>
    <timestep time="705.00"/>
    <timestep time="706.00"/>
    <timestep time="707.00"/>
    <timestep time="708.00"/>
    <timestep time="709.00"/>
    <timestep time="710.00"/>
    <timestep time="711.00"/>
    <timestep time="712.00"/>
    <timestep time="713.00"/>
    <timestep time="714.00"/>
    <timestep time="715.00"/>
    <timestep time="716.00"/>
    <timestep time="717.00"/>
    <timestep time="718.00"/>
    <timestep time="719.00"/>
    <timestep time="720.00"/>
    <timestep time="721.00"/>
    <timestep time="722.00"/>
    <timestep time="723.00"/>
    <timestep time="724.00"/>
    <timestep time="725.00"/>
    <timestep time="726.00"/>
    <timestep time="727.00"/>
    <timestep time="728.00"/>
    <timestep time="729.00"/>
    <timestep time="730.00"/>
    <timestep time="731.00"/>
    <timestep time="732.00"/>
    <timestep time="733.00"/>
    <timestep time="734.00"/>
    <timestep time="735.00"/>
    <timestep time="736.00"/>
    <timestep time="737.00"/>
    <timestep time="738.00"/>
    <timestep time="739.00"/>
    <timestep time="740.00"/>
    <timestep time="741.00"/>
    <timestep time="742.00"/>
    <timestep time="743.00"/>
    <timestep time="744.00"/>
    <timestep time="745.00"/>
    <timestep time="746.00"/>
    <timestep time="747.00"/>
    <timestep time="748.00"/>
    <timestep time="749.00"/>
    <timestep time="750.00"/>
    <timestep time="751.00"/>
    <timestep time="752.00"/>
    <timestep time="753.00"/>
    <timestep time="754.00"/>
    <timestep time="755.00"/>
    <timestep time="756.00"/>
    <timestep time="757.00"/>
    <timestep time="758.00"/>
    <timestep time="759.00"/>
    <timestep time="760.00">
        <vehicle id="BUS8" eclass="HBEFA3/PC_G_EU4" CO2="2624.72" CO="164.78" HC="0.81" NOx="1.20" PMx="0.07" fuel="837.22" electricity="0.00" noise="55.94" route="bus_route" type="BUS" waiting="0.00" lane="166458245#0_0" pos="12.10" speed="0.00" angle="226.74" x="2146.22" y="3060.00"/>
    </timestep>
    <timestep time="761.00">
        <vehicle id="BUS8" eclass="HBEFA3/PC_G_EU4" CO2="2659.64" CO="153.74" HC="0.76" NOx="1.20" PMx="0.06" fuel="848.36" electricity="0.00" noise="59.17" route="bus_route" type="BUS" waiting="0.00" lane="166458245#0_0" pos="12.78" speed="0.68" angle="226.74" x="2145.73" y="3059.54"/>
    </timestep>
    <timestep time="762.00">
        <vehicle id="BUS8" eclass="HBEFA3/PC_G_EU4" CO2="2612.74" CO="145.62" HC="0.72" NOx="1.17" PMx="0.06" fuel="833.39" electricity="0.00" noise="58.22" route="bus_route" type="BUS" waiting="0.00" lane="166458245#0_0" pos="13.87" speed="1.10" angle="226.74" x="2144.93" y="3058.78"/>
    </timestep>
    <timestep time="763.00">
        <vehicle id="BUS8" eclass="HBEFA3/PC_G_EU4" CO2="2644.90" CO="138.04" HC="0.69" NOx="1.17" PMx="0.06" fuel="843.65" electricity="0.00" noise="58.75" route="bus_route" type="BUS" waiting="0.00" lane="166458245#0_0" pos="15.47" speed="1.60" angle="226.74" x="2143.76" y="3057.69"/>
    </timestep>
    <timestep time="764.00">
        <vehicle id="BUS8" eclass="HBEFA3/PC_G_EU4" CO2="2760.31" CO="129.80" HC="0.65" NOx="1.21" PMx="0.06" fuel="880.46" electricity="0.00" noise="59.74" route="bus_route" type="BUS" waiting="0.00" lane="166458245#0_0" pos="17.73" speed="2.26" angle="226.74" x="2142.12" y="3056.14"/>
    </timestep>
    <timestep time="765.00">
        <vehicle id="BUS8" eclass="HBEFA3/PC_G_EU4" CO2="2628.16" CO="120.49" HC="0.61" NOx="1.13" PMx="0.05" fuel="838.31" electricity="0.00" noise="58.89" route="bus_route" type="BUS" waiting="0.00" lane="166458245#0_0" pos="20.41" speed="2.68" angle="226.74" x="2140.16" y="3054.30"/>
    </timestep>
    <timestep time="766.00">
        <vehicle id="BUS8" eclass="HBEFA3/PC_G_EU4" CO2="2672.43" CO="114.37" HC="0.58" NOx="1.14" PMx="0.05" fuel="852.42" electricity="0.00" noise="59.28" route="bus_route" type="BUS" waiting="0.00" lane="166458245#0_0" pos="23.55" speed="3.14" angle="226.74" x="2137.87" y="3052.14"/>
    </timestep>
    <timestep time="767.00">
        <vehicle id="BUS8" eclass="HBEFA3/PC_G_EU4" CO2="3038.99" CO="110.37" HC="0.57" NOx="1.29" PMx="0.06" fuel="969.33" electricity="0.00" noise="61.03" route="bus_route" type="BUS" waiting="0.00" lane="166458245#0_0" pos="27.47" speed="3.92" angle="225.03" x="2135.27" y="3049.20"/>
    </timestep>
    <timestep time="768.00">
        <vehicle id="BUS8" eclass="HBEFA3/PC_G_EU4" CO2="2904.48" CO="99.13" HC="0.52" NOx="1.21" PMx="0.05" fuel="926.43" electricity="0.00" noise="60.54" route="bus_route" type="BUS" waiting="0.00" lane="166458245#0_0" pos="32.00" speed="4.52" angle="222.85" x="2132.29" y="3045.78"/>
    </timestep>
    <timestep time="769.00">
        <vehicle id="BUS8" eclass="HBEFA3/PC_G_EU4" CO2="3232.83" CO="95.33" HC="0.51" NOx="1.35" PMx="0.06" fuel="1031.15" electricity="0.00" noise="61.69" route="bus_route" type="BUS" waiting="0.00" lane="166458245#0_0" pos="37.30" speed="5.30" angle="220.97" x="2128.81" y="3041.77"/>
    </timestep>
    <timestep time="770.00">
        <vehicle id="BUS8" eclass="HBEFA3/PC_G_EU4" CO2="2852.10" CO="81.30" HC="0.43" NOx="1.15" PMx="0.04" fuel="909.72" electricity="0.00" noise="60.70" route="bus_route" type="BUS" waiting="0.00" lane="166458245#0_0" pos="43.07" speed="5.78" angle="220.97" x="2125.02" y="3037.40"/>
    </timestep>
    <timestep time="771.00">
        <vehicle id="BUS8" eclass="HBEFA3/PC_G_EU4" CO2="2842.10" CO="75.46" HC="0.41" NOx="1.14" PMx="0.04" fuel="906.53" electricity="0.00" noise="60.83" route="bus_route" type="BUS" waiting="0.00" lane="166458245#0_0" pos="49.30" speed="6.22" angle="220.97" x="2120.93" y="3032.69"/>
    </timestep>
    <timestep time="772.00">
        <vehicle id="BUS8" eclass="HBEFA3/PC_G_EU4" CO2="3374.49" CO="77.84" HC="0.43" NOx="1.37" PMx="0.05" fuel="1076.33" electricity="0.00" noise="62.26" route="bus_route" type="BUS" waiting="0.00" lane="166458245#0_0" pos="56.22" speed="6.93" angle="220.97" x="2116.38" y="3027.45"/>
    </timestep>
    <timestep time="773.00">
        <vehicle id="BUS8" eclass="HBEFA3/PC_G_EU4" CO2="3254.07" CO="68.46" HC="0.39" NOx="1.30" PMx="0.05" fuel="1037.92" electricity="0.00" noise="62.17" route="bus_route" type="BUS" waiting="0.00" lane="166458245#0_0" pos="63.74" speed="7.52" angle="219.03" x="2111.76" y="3021.51"/>
    </timestep>
    <timestep time="774.00">
        <vehicle id="BUS8" eclass="HBEFA3/PC_G_EU4" CO2="3144.82" CO="60.57" HC="0.35" NOx="1.23" PMx="0.04" fuel="1003.07" electricity="0.00" noise="62.14" route="bus_route" type="BUS" waiting="0.00" lane="166458245#0_0" pos="71.76" speed="8.02" angle="217.62" x="2106.85" y="3015.14"/>
    </timestep>
    <timestep time="775.00">
        <vehicle id="BUS8" eclass="HBEFA3/PC_G_EU4" CO2="3461.39" CO="60.55" HC="0.35" NOx="1.37" PMx="0.05" fuel="1104.04" electricity="0.00" noise="62.90" route="bus_route" type="BUS" waiting="0.00" lane="166458245#0_0" pos="80.39" speed="8.63" angle="217.62" x="2101.57" y="3008.29"/>
    </timestep>
    <timestep time="776.00">
        <vehicle id="BUS8" eclass="HBEFA3/PC_G_EU4" CO2="4012.00" CO="63.98" HC="0.38" NOx="1.61" PMx="0.06" fuel="1279.65" electricity="0.00" noise="63.99" route="bus_route" type="BUS" waiting="0.00" lane="166458245#0_0" pos="89.81" speed="9.41" angle="217.62" x="2095.82" y="3000.82"/>
    </timestep>
    <timestep time="777.00">
        <vehicle id="BUS8" eclass="HBEFA3/PC_G_EU4" CO2="3655.29" CO="50.98" HC="0.32" NOx="1.42" PMx="0.05" fuel="1165.88" electricity="0.00" noise="63.68" route="bus_route" type="BUS" waiting="0.00" lane="166458245#0_0" pos="99.81" speed="10.00" angle="217.57" x="2089.71" y="2992.87"/>
    </timestep>
    <timestep time="778.00">
        <vehicle id="BUS8" eclass="HBEFA3/PC_G_EU4" CO2="4117.78" CO="54.10" HC="0.34" NOx="1.62" PMx="0.06" fuel="1313.39" electricity="0.00" noise="64.53" route="bus_route" type="BUS" waiting="0.00" lane="166458245#0_0" pos="110.52" speed="10.71" angle="217.05" x="2083.24" y="2984.31"/>
    </timestep>
    <timestep time="779.00">
        <vehicle id="BUS8" eclass="HBEFA3/PC_G_EU4" CO2="4453.05" CO="54.59" HC="0.35" NOx="1.76" PMx="0.07" fuel="1420.32" electricity="0.00" noise="65.18" route="bus_route" type="BUS" waiting="0.00" lane="166458245#0_0" pos="122.00" speed="11.48" angle="217.04" x="2076.32" y="2975.13"/>
    </timestep>
    <timestep time="780.00">
        <vehicle id="BUS8" eclass="HBEFA3/PC_G_EU4" CO2="3937.46" CO="39.62" HC="0.27" NOx="1.50" PMx="0.06" fuel="1255.87" electricity="0.00" noise="64.84" route="bus_route" type="BUS" waiting="0.00" lane="166458245#0_0" pos="134.03" speed="12.03" angle="217.39" x="2069.00" y="2965.55"/>
    </timestep>
    <timestep time="781.00">
        <vehicle id="BUS8" eclass="HBEFA3/PC_G_EU4" CO2="3666.43" CO="30.75" HC="0.22" NOx="1.37" PMx="0.05" fuel="1169.43" electricity="0.00" noise="64.78" route="bus_route" type="BUS" waiting="0.00" lane="166458245#0_0" pos="146.51" speed="12.47" angle="217.72" x="2061.35" y="2955.67"/>
    </timestep>
    <timestep time="782.00">
        <vehicle id="BUS8" eclass="HBEFA3/PC_G_EU4" CO2="4865.64" CO="50.24" HC="0.34" NOx="1.91" PMx="0.08" fuel="1551.91" electricity="0.00" noise="66.20" route="bus_route" type="BUS" waiting="0.00" lane="166458245#0_0" pos="159.73" speed="13.22" angle="217.72" x="2053.25" y="2945.19"/>
    </timestep>
    <timestep time="783.00">
        <vehicle id="BUS8" eclass="HBEFA3/PC_G_EU4" CO2="3771.98" CO="25.08" HC="0.20" NOx="1.39" PMx="0.05" fuel="1203.09" electricity="0.00" noise="65.44" route="bus_route" type="BUS" waiting="0.00" lane="166458245#0_0" pos="173.36" speed="13.63" angle="216.17" x="2045.15" y="2934.19"/>
    </timestep>
    <timestep time="784.00">
        <vehicle id="BUS8" eclass="HBEFA3/PC_G_EU4" CO2="4447.78" CO="35.59" HC="0.27" NOx="1.69" PMx="0.07" fuel="1418.63" electricity="0.00" noise="66.23" route="bus_route" type="BUS" waiting="0.00" lane="166458245#0_0" pos="187.56" speed="14.20" angle="214.74" x="2037.05" y="2922.50"/>
    </timestep>
    <timestep time="785.00">
        <vehicle id="BUS8" eclass="HBEFA3/PC_G_EU4" CO2="5211.42" CO="47.37" HC="0.34" NOx="2.03" PMx="0.09" fuel="1662.19" electricity="0.00" noise="67.12" route="bus_route" type="BUS" waiting="0.00" lane="166458245#0_0" pos="202.47" speed="14.91" angle="214.79" x="2028.53" y="2910.24"/>
    </timestep>
    <timestep time="786.00">
        <vehicle id="BUS8" eclass="HBEFA3/PC_G_EU4" CO2="5469.40" CO="49.12" HC="0.35" NOx="2.14" PMx="0.09" fuel="1744.47" electricity="0.00" noise="67.58" route="bus_route" type="BUS" waiting="0.00" lane="166458245#0_0" pos="218.10" speed="15.64" angle="212.15" x="2020.05" y="2897.07"/>
    </timestep>
    <timestep time="787.00">
        <vehicle id="BUS8" eclass="HBEFA3/PC_G_EU4" CO2="4719.27" CO="31.44" HC="0.25" NOx="1.77" PMx="0.07" fuel="1505.22" electricity="0.00" noise="67.30" route="bus_route" type="BUS" waiting="0.00" lane=":1829509114_0_0" pos="7.35" speed="16.14" angle="211.70" x="2011.56" y="2883.32"/>
    </timestep>
    <timestep time="788.00">
        <vehicle id="BUS8" eclass="HBEFA3/PC_G_EU4" CO2="6002.94" CO="54.94" HC="0.39" NOx="2.36" PMx="0.11" fuel="1914.65" electricity="0.00" noise="68.42" route="bus_route" type="BUS" waiting="0.00" lane="166458245#1_0" pos="14.85" speed="16.90" angle="211.66" x="2002.30" y="2868.31"/>
    </timestep>
    <timestep time="789.00">
        <vehicle id="BUS8" eclass="HBEFA3/PC_G_EU4" CO2="6463.61" CO="61.86" HC="0.44" NOx="2.56" PMx="0.12" fuel="2061.57" electricity="0.00" noise="69.00" route="bus_route" type="BUS" waiting="0.00" lane="166458245#1_0" pos="32.55" speed="17.70" angle="211.57" x="1992.57" y="2852.48"/>
    </timestep>
    <timestep time="790.00">
        <vehicle id="BUS8" eclass="HBEFA3/PC_G_EU4" CO2="5387.25" CO="38.29" HC="0.30" NOx="2.04" PMx="0.09" fuel="1718.27" electricity="0.00" noise="68.61" route="bus_route" type="BUS" waiting="0.00" lane="166458245#1_0" pos="50.77" speed="18.23" angle="211.28" x="1982.61" y="2836.15"/>
    </timestep>
    <timestep time="791.00">
        <vehicle id="BUS8" eclass="HBEFA3/PC_G_EU4" CO2="6863.12" CO="67.02" HC="0.47" NOx="2.71" PMx="0.13" fuel="2189.00" electricity="0.00" noise="69.71" route="bus_route" type="BUS" waiting="0.00" lane="166458245#1_0" pos="69.78" speed="19.01" angle="211.23" x="1972.27" y="2819.09"/>
    </timestep>
    <timestep time="792.00">
        <vehicle id="BUS8" eclass="HBEFA3/PC_G_EU4" CO2="0.00" CO="0.00" HC="0.00" NOx="0.00" PMx="0.00" fuel="0.00" electricity="0.00" noise="64.54" route="bus_route" type="BUS" waiting="0.00" lane="166458245#1_0" pos="86.81" speed="17.02" angle="215.47" x="1962.23" y="2804.32"/>
    </timestep>
    <timestep time="793.00">
        <vehicle id="BUS8" eclass="HBEFA3/PC_G_EU4" CO2="0.00" CO="0.00" HC="0.00" NOx="0.00" PMx="0.00" fuel="0.00" electricity="0.00" noise="60.10" route="bus_route" type="BUS" waiting="0.00" lane="166458245#1_0" pos="99.42" speed="12.62" angle="215.76" x="1954.49" y="2793.58"/>
    </timestep>
    <timestep time="794.00">
        <vehicle id="BUS8" eclass="HBEFA3/PC_G_EU4" CO2="0.00" CO="0.00" HC="0.00" NOx="0.00" PMx="0.00" fuel="0.00" electricity="0.00" noise="54.41" route="bus_route" type="BUS" waiting="0.00" lane="166458245#1_0" pos="107.55" speed="8.13" angle="215.76" x="1949.50" y="2786.65"/>
    </timestep>
    <timestep time="795.00">
        <vehicle id="BUS8" eclass="HBEFA3/PC_G_EU4" CO2="0.00" CO="0.00" HC="0.00" NOx="0.00" PMx="0.00" fuel="0.00" electricity="0.00" noise="45.41" route="bus_route" type="BUS" waiting="0.00" lane="166458245#1_0" pos="111.25" speed="3.70" angle="193.87" x="1952.47" y="2785.13"/>
    </timestep>
    <timestep time="796.00">
        <vehicle id="BUS8" eclass="HBEFA3/PC_G_EU4" CO2="2431.47" CO="157.54" HC="0.77" NOx="1.11" PMx="0.06" fuel="775.58" electricity="0.00" noise="40.55" route="bus_route" type="BUS" waiting="0.00" lane="166458245#1_0" pos="111.44" speed="0.18" angle="192.12" x="1952.65" y="2785.06"/>
    </timestep>
    <timestep time="797.00">
        <vehicle id="BUS8" eclass="HBEFA3/PC_G_EU4" CO2="2604.95" CO="161.88" HC="0.80" NOx="1.19" PMx="0.06" fuel="830.92" electricity="0.00" noise="55.80" route="bus_route" type="BUS" waiting="0.00" lane="166458245#1_0" pos="111.58" speed="0.14" angle="190.74" x="1952.79" y="2785.01"/>
    </timestep>
    <timestep time="798.00">
        <vehicle id="BUS8" eclass="HBEFA3/PC_G_EU4" CO2="2620.69" CO="164.25" HC="0.81" NOx="1.20" PMx="0.07" fuel="835.94" electricity="0.00" noise="55.44" route="bus_route" type="BUS" waiting="1.00" lane="166458245#1_0" pos="111.61" speed="0.03" angle="190.49" x="1952.82" y="2785.00"/>
    </timestep>
    <timestep time="799.00">
        <vehicle id="BUS8" eclass="HBEFA3/PC_G_EU4" CO2="2623.76" CO="164.63" HC="0.81" NOx="1.20" PMx="0.07" fuel="836.92" electricity="0.00" noise="55.86" route="bus_route" type="BUS" waiting="2.00" lane="166458245#1_0" pos="111.61" speed="0.01" angle="190.42" x="1952.83" y="2785.00"/>
    </timestep>
    <timestep time="800.00">
        <vehicle id="BUS8" eclass="HBEFA3/PC_G_EU4" CO2="2624.25" CO="164.70" HC="0.81" NOx="1.20" PMx="0.07" fuel="837.07" electricity="0.00" noise="55.93" route="bus_route" type="BUS" waiting="3.00" lane="166458245#1_0" pos="111.62" speed="0.00" angle="190.39" x="1952.83" y="2785.00"/>
    </timestep>
    <timestep time="801.00">
        <vehicle id="BUS8" eclass="HBEFA3/PC_G_EU4" CO2="2624.38" CO="164.72" HC="0.81" NOx="1.20" PMx="0.07" fuel="837.11" electricity="0.00" noise="55.94" route="bus_route" type="BUS" waiting="4.00" lane="166458245#1_0" pos="111.62" speed="0.00" angle="190.36" x="1952.83" y="2785.00"/>
    </timestep>
    <timestep time="802.00">
        <vehicle id="BUS8" eclass="HBEFA3/PC_G_EU4" CO2="2624.69" CO="164.77" HC="0.81" NOx="1.20" PMx="0.07" fuel="837.21" electricity="0.00" noise="55.93" route="bus_route" type="BUS" waiting="5.00" lane="166458245#1_0" pos="111.62" speed="0.00" angle="190.36" x="1952.83" y="2785.00"/>
    </timestep>
    <timestep time="803.00">
        <vehicle id="BUS8" eclass="HBEFA3/PC_G_EU4" CO2="2624.70" CO="164.77" HC="0.81" NOx="1.20" PMx="0.07" fuel="837.22" electricity="0.00" noise="55.94" route="bus_route" type="BUS" waiting="6.00" lane="166458245#1_0" pos="111.62" speed="0.00" angle="190.36" x="1952.83" y="2785.00"/>
    </timestep>
    <timestep time="804.00">
        <vehicle id="BUS8" eclass="HBEFA3/PC_G_EU4" CO2="2624.72" CO="164.78" HC="0.81" NOx="1.20" PMx="0.07" fuel="837.22" electricity="0.00" noise="55.94" route="bus_route" type="BUS" waiting="7.00" lane="166458245#1_0" pos="111.62" speed="0.00" angle="190.36" x="1952.83" y="2785.00"/>
    </timestep>
    <timestep time="805.00">
        <vehicle id="BUS8" eclass="HBEFA3/PC_G_EU4" CO2="2624.72" CO="164.78" HC="0.81" NOx="1.20" PMx="0.07" fuel="837.22" electricity="0.00" noise="55.94" route="bus_route" type="BUS" waiting="8.00" lane="166458245#1_0" pos="111.62" speed="0.00" angle="190.36" x="1952.83" y="2785.00"/>
    </timestep>
    <timestep time="806.00">
        <vehicle id="BUS8" eclass="HBEFA3/PC_G_EU4" CO2="2624.72" CO="164.78" HC="0.81" NOx="1.20" PMx="0.07" fuel="837.22" electricity="0.00" noise="55.94" route="bus_route" type="BUS" waiting="9.00" lane="166458245#1_0" pos="111.62" speed="0.00" angle="190.36" x="1952.83" y="2785.00"/>
    </timestep>
    <timestep time="807.00">
        <vehicle id="BUS8" eclass="HBEFA3/PC_G_EU4" CO2="2624.72" CO="164.78" HC="0.81" NOx="1.20" PMx="0.07" fuel="837.22" electricity="0.00" noise="55.94" route="bus_route" type="BUS" waiting="10.00" lane="166458245#1_0" pos="111.62" speed="0.00" angle="190.36" x="1952.83" y="2785.00"/>
    </timestep>
    <timestep time="808.00">
        <vehicle id="BUS8" eclass="HBEFA3/PC_G_EU4" CO2="2624.72" CO="164.78" HC="0.81" NOx="1.20" PMx="0.07" fuel="837.22" electricity="0.00" noise="55.94" route="bus_route" type="BUS" waiting="11.00" lane="166458245#1_0" pos="111.62" speed="0.00" angle="190.36" x="1952.83" y="2785.00"/>
    </timestep>
    <timestep time="809.00">
        <vehicle id="BUS8" eclass="HBEFA3/PC_G_EU4" CO2="2624.72" CO="164.78" HC="0.81" NOx="1.20" PMx="0.07" fuel="837.22" electricity="0.00" noise="55.94" route="bus_route" type="BUS" waiting="12.00" lane="166458245#1_0" pos="111.62" speed="0.00" angle="190.36" x="1952.83" y="2785.00"/>
    </timestep>
    <timestep time="810.00">
        <vehicle id="BUS8" eclass="HBEFA3/PC_G_EU4" CO2="2675.84" CO="152.97" HC="0.76" NOx="1.21" PMx="0.06" fuel="853.52" electricity="0.00" noise="59.48" route="bus_route" type="BUS" waiting="0.00" lane="166458245#1_0" pos="112.36" speed="0.74" angle="182.51" x="1953.56" y="2784.73"/>
    </timestep>
    <timestep time="811.00">
        <vehicle id="BUS8" eclass="HBEFA3/PC_G_EU4" CO2="2707.52" CO="142.24" HC="0.71" NOx="1.20" PMx="0.06" fuel="863.62" electricity="0.00" noise="59.47" route="bus_route" type="BUS" waiting="0.00" lane=":cluster_1779260093_1779260094_1779260095_1779260096_10_0" pos="1.16" speed="1.42" angle="179.67" x="1953.09" y="2783.74"/>
    </timestep>
    <timestep time="812.00">
        <vehicle id="BUS8" eclass="HBEFA3/PC_G_EU4" CO2="2648.22" CO="133.08" HC="0.67" NOx="1.16" PMx="0.06" fuel="844.71" electricity="0.00" noise="58.84" route="bus_route" type="BUS" waiting="0.00" lane=":cluster_1779260093_1779260094_1779260095_1779260096_10_0" pos="3.07" speed="1.91" angle="179.89" x="1951.89" y="2782.26"/>
    </timestep>
    <timestep time="813.00">
        <vehicle id="BUS8" eclass="HBEFA3/PC_G_EU4" CO2="2645.74" CO="125.71" HC="0.63" NOx="1.15" PMx="0.05" fuel="843.91" electricity="0.00" noise="58.92" route="bus_route" type="BUS" waiting="0.00" lane=":cluster_1779260093_1779260094_1779260095_1779260096_10_0" pos="5.43" speed="2.37" angle="180.19" x="1950.40" y="2780.42"/>
    </timestep>
    <timestep time="814.00">
        <vehicle id="BUS8" eclass="HBEFA3/PC_G_EU4" CO2="2624.02" CO="118.85" HC="0.60" NOx="1.13" PMx="0.05" fuel="836.98" electricity="0.00" noise="58.90" route="bus_route" type="BUS" waiting="0.00" lane=":cluster_1779260093_1779260094_1779260095_1779260096_10_0" pos="8.21" speed="2.78" angle="190.50" x="1948.65" y="2778.26"/>
    </timestep>
    <timestep time="815.00">
        <vehicle id="BUS8" eclass="HBEFA3/PC_G_EU4" CO2="2969.21" CO="114.47" HC="0.59" NOx="1.27" PMx="0.06" fuel="947.08" electricity="0.00" noise="60.77" route="bus_route" type="BUS" waiting="0.00" lane=":cluster_1779260093_1779260094_1779260095_1779260096_10_0" pos="11.76" speed="3.54" angle="217.85" x="1946.42" y="2775.51"/>
    </timestep>
    <timestep time="816.00">
        <vehicle id="BUS8" eclass="HBEFA3/PC_G_EU4" CO2="2994.01" CO="104.84" HC="0.55" NOx="1.26" PMx="0.05" fuel="954.98" electricity="0.00" noise="60.84" route="bus_route" type="BUS" waiting="0.00" lane="166479614_0" pos="3.36" speed="4.25" angle="210.22" x="1945.45" y="2771.48"/>
    </timestep>
    <timestep time="817.00">
        <vehicle id="BUS8" eclass="HBEFA3/PC_G_EU4" CO2="3195.15" CO="98.20" HC="0.52" NOx="1.34" PMx="0.06" fuel="1019.14" electricity="0.00" noise="61.56" route="bus_route" type="BUS" waiting="0.00" lane="166479614_0" pos="8.39" speed="5.03" angle="196.54" x="1944.83" y="2766.49"/>
    </timestep>
    <timestep time="818.00">
        <vehicle id="BUS8" eclass="HBEFA3/PC_G_EU4" CO2="3183.68" CO="88.74" HC="0.48" NOx="1.31" PMx="0.05" fuel="1015.48" electricity="0.00" noise="61.58" route="bus_route" type="BUS" waiting="0.00" lane="166479614_0" pos="14.12" speed="5.73" angle="187.07" x="1944.12" y="2760.81"/>
    </timestep>
    <timestep time="819.00">
        <vehicle id="BUS8" eclass="HBEFA3/PC_G_EU4" CO2="3288.73" CO="82.08" HC="0.45" NOx="1.34" PMx="0.05" fuel="1048.98" electricity="0.00" noise="61.97" route="bus_route" type="BUS" waiting="0.00" lane="166479614_0" pos="20.55" speed="6.43" angle="188.68" x="1943.00" y="2754.50"/>
    </timestep>
    <timestep time="820.00">
        <vehicle id="BUS8" eclass="HBEFA3/PC_G_EU4" CO2="3374.26" CO="75.58" HC="0.42" NOx="1.37" PMx="0.05" fuel="1076.25" electricity="0.00" noise="62.30" route="bus_route" type="BUS" waiting="0.00" lane="166479614_0" pos="27.67" speed="7.12" angle="193.89" x="1941.06" y="2747.66"/>
    </timestep>
    <timestep time="821.00">