<?xml version="1.0" encoding="UTF-8"?>

<!-- generated on 2024-05-01 00:04:14 by Eclipse SUMO sumo Version 1.19.0
<configuration xmlns:xsi="http://www.w3.org/2001/XMLSchema-instance" xsi:noNamespaceSchemaLocation="http://sumo.dlr.de/xsd/sumoConfiguration.xsd">

    <input>
        <net-file value="ElectricBRTS.net.xml"/>
        <route-files value="BRTS.route.xml"/>
    </input>

    <output>
        <tripinfo-output value="Case1_BRTS_tripinformation.xml"/>
    </output>

    <time>
        <begin value="0"/>
        <end value="1000"/>
    </time>

    <processing>
        <ignore-route-errors value="True"/>
    </processing>

</configuration>
-->

<tripinfos xmlns:xsi="http://www.w3.org/2001/XMLSchema-instance" xsi:noNamespaceSchemaLocation="http://sumo.dlr.de/xsd/tripinfo_file.xsd">
    <tripinfo id="BUS1" depart="10.00" departLane="166458245#0_0" departPos="12.10" departSpeed="0.00" departDelay="0.00" arrival="344.00" arrivalLane="166479007#0_1" arrivalPos="27.35" arrivalSpeed="9.77" duration="334.00" routeLength="2668.16" waitingTime="108.00" waitingCount="3" stopTime="0.00" timeLoss="235.85" rerouteNo="0" devices="tripinfo_BUS1" vType="BUS" speedFactor="1.06" vaporized=""/>
    <tripinfo id="BUS2" depart="50.00" departLane="166458245#0_0" departPos="12.10" departSpeed="0.00" departDelay="0.00" arrival="482.00" arrivalLane="166479007#0_1" arrivalPos="27.35" arrivalSpeed="9.47" duration="432.00" routeLength="2663.00" waitingTime="200.00" waitingCount="4" stopTime="0.00" timeLoss="321.60" rerouteNo="0" devices="tripinfo_BUS2" vType="BUS" speedFactor="0.94" vaporized=""/>
    <tripinfo id="BUS4" depart="100.00" departLane="166458245#0_0" departPos="12.10" departSpeed="0.00" departDelay="0.00" arrival="617.00" arrivalLane="166479007#0_1" arrivalPos="27.35" arrivalSpeed="10.01" duration="517.00" routeLength="2665.24" waitingTime="293.00" waitingCount="4" stopTime="0.00" timeLoss="420.92" rerouteNo="0" devices="tripinfo_BUS4" vType="BUS" speedFactor="1.08" vaporized=""/>
    <tripinfo id="BUS3" depart="75.00" departLane="166458245#0_0" departPos="12.10" departSpeed="0.00" departDelay="0.00" arrival="753.00" arrivalLane="166479007#0_1" arrivalPos="27.35" arrivalSpeed="9.03" duration="678.00" routeLength="2669.43" waitingTime="438.00" waitingCount="5" stopTime="0.00" timeLoss="575.32" rerouteNo="0" devices="tripinfo_BUS3" vType="BUS" speedFactor="1.01" vaporized=""/>
    <tripinfo id="BUS5" depart="250.00" departLane="166458245#0_0" departPos="12.10" departSpeed="0.00" departDelay="0.00" arrival="888.00" arrivalLane="166479007#0_1" arrivalPos="27.35" arrivalSpeed="9.35" duration="638.00" routeLength="2668.16" waitingTime="359.00" waitingCount="7" stopTime="0.00" timeLoss="537.39" rerouteNo="0" devices="tripinfo_BUS5" vType="BUS" speedFactor="1.03" vaporized=""/>
</tripinfos>
