<?xml version="1.0" encoding="UTF-8"?>

<!-- generated on 2024-05-01 08:06:50 by Eclipse SUMO sumo Version 1.19.0
<configuration xmlns:xsi="http://www.w3.org/2001/XMLSchema-instance" xsi:noNamespaceSchemaLocation="http://sumo.dlr.de/xsd/sumoConfiguration.xsd">

    <input>
        <net-file value="Car.net.xml"/>
        <route-files value="Car.rou.xml"/>
    </input>

    <output>
        <tripinfo-output value="case1_car_tripinformation.xml"/>
    </output>

    <time>
        <begin value="0"/>
        <end value="1000"/>
    </time>

    <processing>
        <ignore-route-errors value="True"/>
        <max-num-vehicles value="46"/>
    </processing>

</configuration>
-->

<tripinfos xmlns:xsi="http://www.w3.org/2001/XMLSchema-instance" xsi:noNamespaceSchemaLocation="http://sumo.dlr.de/xsd/tripinfo_file.xsd">
    <tripinfo id="CAR2" depart="20.00" departLane="166458245#0_0" departPos="5.10" departSpeed="0.00" departDelay="0.00" arrival="509.00" arrivalLane="166479007#3_1" arrivalPos="54.81" arrivalSpeed="12.23" duration="489.00" routeLength="2931.35" waitingTime="179.00" waitingCount="4" stopTime="0.00" timeLoss="250.76" rerouteNo="0" devices="tripinfo_CAR2" vType="CAR" speedFactor="0.94" vaporized=""/>
    <tripinfo id="CAR4" depart="76.00" departLane="166458245#0_0" departPos="5.10" departSpeed="0.00" departDelay="0.00" arrival="803.00" arrivalLane="166479007#3_1" arrivalPos="54.81" arrivalSpeed="12.47" duration="727.00" routeLength="2908.51" waitingTime="424.00" waitingCount="5" stopTime="0.00" timeLoss="493.27" rerouteNo="0" devices="tripinfo_CAR4" vType="CAR" speedFactor="1.08" vaporized=""/>
    <tripinfo id="CAR6" depart="102.00" departLane="166458245#0_0" departPos="5.10" departSpeed="0.00" departDelay="0.00" arrival="861.00" arrivalLane="166479007#3_1" arrivalPos="54.81" arrivalSpeed="12.31" duration="759.00" routeLength="2931.35" waitingTime="442.00" waitingCount="5" stopTime="0.00" timeLoss="519.70" rerouteNo="0" devices="tripinfo_CAR6" vType="CAR" speedFactor="0.83" vaporized=""/>
    <tripinfo id="CAR1" depart="5.00" departLane="166458245#0_0" departPos="5.10" departSpeed="0.00" departDelay="0.00" arrival="863.00" arrivalLane="166479007#3_1" arrivalPos="54.81" arrivalSpeed="12.29" duration="858.00" routeLength="2934.20" waitingTime="523.00" waitingCount="6" stopTime="0.00" timeLoss="621.02" rerouteNo="0" devices="tripinfo_CAR1" vType="CAR" speedFactor="1.06" vaporized=""/>
</tripinfos>
