<?xml version="1.0" encoding="UTF-8"?>

<!-- generated on 2024-04-29 00:13:51 by Eclipse SUMO sumo Version 1.19.0
<configuration xmlns:xsi="http://www.w3.org/2001/XMLSchema-instance" xsi:noNamespaceSchemaLocation="http://sumo.dlr.de/xsd/sumoConfiguration.xsd">

    <input>
        <net-file value="final.net.xml"/>
        <route-files value="final.rou.xml,electricbus.net.xml"/>
    </input>

    <output>
        <emission-output value="Case1_emissions_cars.xml"/>
    </output>

    <time>
        <begin value="0"/>
        <end value="1000"/>
    </time>

    <processing>
        <ignore-route-errors value="True"/>
    </processing>

</configuration>
-->

<emission-export xmlns:xsi="http://www.w3.org/2001/XMLSchema-instance" xsi:noNamespaceSchemaLocation="http://sumo.dlr.de/xsd/emission_file.xsd">
    <timestep time="0.00">
        <vehicle id="0" eclass="HBEFA3/PC_G_EU4" CO2="2624.72" CO="164.78" HC="0.81" NOx="1.20" PMx="0.07" fuel="837.22" electricity="0.00" noise="55.94" route="!0" type="DEFAULT_VEHTYPE" waiting="0.00" lane="167463858#7_0" pos="5.10" speed="0.00" angle="86.87" x="1700.91" y="492.21"/>
    </timestep>
    <timestep time="1.00">
        <vehicle id="0" eclass="HBEFA3/PC_G_EU4" CO2="3876.66" CO="150.31" HC="0.78" NOx="1.73" PMx="0.09" fuel="1236.51" electricity="0.00" noise="67.49" route="!0" type="DEFAULT_VEHTYPE" waiting="0.00" lane="167463858#7_0" pos="7.51" speed="2.41" angle="86.87" x="1703.32" y="492.34"/>
        <vehicle id="1" eclass="HBEFA3/PC_G_EU4" CO2="2624.72" CO="164.78" HC="0.81" NOx="1.20" PMx="0.07" fuel="837.22" electricity="0.00" noise="55.94" route="!1" type="DEFAULT_VEHTYPE" waiting="0.00" lane="-451813228_0" pos="5.10" speed="0.00" angle="268.87" x="1997.79" y="976.07"/>
    </timestep>
    <timestep time="2.00">
        <vehicle id="0" eclass="HBEFA3/PC_G_EU4" CO2="3709.70" CO="124.96" HC="0.66" NOx="1.61" PMx="0.07" fuel="1183.25" electricity="0.00" noise="63.91" route="!0" type="DEFAULT_VEHTYPE" waiting="0.00" lane="167463858#7_0" pos="11.39" speed="3.87" angle="86.87" x="1707.19" y="492.55"/>
        <vehicle id="1" eclass="HBEFA3/PC_G_EU4" CO2="3191.73" CO="147.37" HC="0.75" NOx="1.42" PMx="0.07" fuel="1018.06" electricity="0.00" noise="64.14" route="!1" type="DEFAULT_VEHTYPE" waiting="0.00" lane="-451813228_0" pos="6.81" speed="1.71" angle="268.87" x="1996.08" y="976.04"/>
        <vehicle id="2" eclass="HBEFA3/PC_G_EU4" CO2="2624.72" CO="164.78" HC="0.81" NOx="1.20" PMx="0.07" fuel="837.22" electricity="0.00" noise="55.94" route="!2" type="DEFAULT_VEHTYPE" waiting="0.00" lane="177264617#8_0" pos="5.10" speed="0.00" angle="75.14" x="1681.55" y="1387.97"/>
    </timestep>
    <timestep time="3.00">
        <vehicle id="0" eclass="HBEFA3/PC_G_EU4" CO2="6110.54" CO="141.76" HC="0.79" NOx="2.68" PMx="0.13" fuel="1948.99" electricity="0.00" noise="69.20" route="!0" type="DEFAULT_VEHTYPE" waiting="0.00" lane="167463858#7_0" pos="17.69" speed="6.30" angle="82.81" x="1713.44" y="493.25"/>
        <vehicle id="1" eclass="HBEFA3/PC_G_EU4" CO2="4470.65" CO="140.10" HC="0.74" NOx="1.97" PMx="0.09" fuel="1425.96" electricity="0.00" noise="67.13" route="!1" type="DEFAULT_VEHTYPE" waiting="0.00" lane="-451813228_0" pos="10.72" speed="3.91" angle="268.87" x="1992.17" y="975.96"/>
        <vehicle id="2" eclass="HBEFA3/PC_G_EU4" CO2="3986.94" CO="151.14" HC="0.78" NOx="1.78" PMx="0.09" fuel="1271.68" electricity="0.00" noise="67.94" route="!2" type="DEFAULT_VEHTYPE" waiting="0.00" lane="177264617#8_0" pos="7.61" speed="2.51" angle="75.14" x="1683.97" y="1388.61"/>
        <vehicle id="3" eclass="HBEFA3/PC_G_EU4" CO2="2624.72" CO="164.78" HC="0.81" NOx="1.20" PMx="0.07" fuel="837.22" electricity="0.00" noise="55.94" route="!3" type="DEFAULT_VEHTYPE" waiting="0.00" lane="374254706#0_0" pos="5.10" speed="0.00" angle="92.23" x="1768.08" y="2603.44"/>
    </timestep>
    <timestep time="4.00">
        <vehicle id="0" eclass="HBEFA3/PC_G_EU4" CO2="6754.71" CO="130.54" HC="0.76" NOx="2.93" PMx="0.14" fuel="2154.44" electricity="0.00" noise="68.87" route="!0" type="DEFAULT_VEHTYPE" waiting="0.00" lane="167463858#7_0" pos="26.11" speed="8.43" angle="81.51" x="1721.78" y="494.49"/>
        <vehicle id="1" eclass="HBEFA3/PC_G_EU4" CO2="4181.34" CO="114.11" HC="0.62" NOx="1.79" PMx="0.08" fuel="1333.68" electricity="0.00" noise="64.56" route="!1" type="DEFAULT_VEHTYPE" waiting="0.00" lane="-451813228_0" pos="16.08" speed="5.36" angle="271.65" x="1986.82" y="976.10"/>
        <vehicle id="2" eclass="HBEFA3/PC_G_EU4" CO2="4745.36" CO="135.63" HC="0.73" NOx="2.08" PMx="0.10" fuel="1513.57" electricity="0.00" noise="67.11" route="!2" type="DEFAULT_VEHTYPE" waiting="0.00" lane="177264617#8_0" pos="12.23" speed="4.62" angle="75.14" x="1688.44" y="1389.80"/>
        <vehicle id="3" eclass="HBEFA3/PC_G_EU4" CO2="3689.72" CO="149.08" HC="0.77" NOx="1.65" PMx="0.08" fuel="1176.89" electricity="0.00" noise="66.69" route="!3" type="DEFAULT_VEHTYPE" waiting="0.00" lane="374254706#0_0" pos="7.35" speed="2.25" angle="92.23" x="1770.32" y="2603.35"/>
        <vehicle id="4" eclass="HBEFA3/PC_G_EU4" CO2="2624.72" CO="164.78" HC="0.81" NOx="1.20" PMx="0.07" fuel="837.22" electricity="0.00" noise="55.94" route="!4" type="DEFAULT_VEHTYPE" waiting="0.00" lane="133349467#3_0" pos="0.20" speed="0.00" angle="64.92" x="1257.27" y="559.33"/>
    </timestep>
    <timestep time="5.00">
        <vehicle id="0" eclass="HBEFA3/PC_G_EU4" CO2="6888.54" CO="115.59" HC="0.69" NOx="2.94" PMx="0.14" fuel="2197.12" electricity="0.00" noise="68.36" route="!0" type="DEFAULT_VEHTYPE" waiting="0.00" lane="167463858#7_0" pos="36.33" speed="10.22" angle="81.51" x="1731.88" y="496.00"/>
        <vehicle id="1" eclass="HBEFA3/PC_G_EU4" CO2="4608.57" CO="105.04" HC="0.59" NOx="1.96" PMx="0.09" fuel="1469.93" electricity="0.00" noise="65.10" route="!1" type="DEFAULT_VEHTYPE" waiting="0.00" lane="-451813228_0" pos="22.86" speed="6.78" angle="272.41" x="1980.05" y="976.38"/>
        <vehicle id="2" eclass="HBEFA3/PC_G_EU4" CO2="4210.78" CO="106.89" HC="0.58" NOx="1.79" PMx="0.08" fuel="1343.06" electricity="0.00" noise="64.37" route="!2" type="DEFAULT_VEHTYPE" waiting="0.00" lane="177264617#8_0" pos="18.19" speed="5.96" angle="75.14" x="1694.21" y="1391.33"/>
        <vehicle id="3" eclass="HBEFA3/PC_G_EU4" CO2="4219.72" CO="132.02" HC="0.70" NOx="1.84" PMx="0.09" fuel="1345.92" electricity="0.00" noise="65.78" route="!3" type="DEFAULT_VEHTYPE" waiting="0.00" lane="374254706#0_0" pos="11.46" speed="4.11" angle="92.23" x="1774.43" y="2603.19"/>
        <vehicle id="4" eclass="HBEFA3/PC_G_EU4" CO2="2624.72" CO="164.78" HC="0.81" NOx="1.20" PMx="0.07" fuel="837.22" electricity="0.00" noise="55.94" route="!4" type="DEFAULT_VEHTYPE" waiting="1.00" lane="133349467#3_1" pos="0.20" speed="0.00" angle="60.50" x="1255.32" y="561.92"/>
        <vehicle id="5" eclass="HBEFA3/PC_G_EU4" CO2="2624.72" CO="164.78" HC="0.81" NOx="1.20" PMx="0.07" fuel="837.22" electricity="0.00" noise="55.94" route="!5" type="DEFAULT_VEHTYPE" waiting="0.00" lane="-335744081#1_0" pos="5.10" speed="0.00" angle="232.42" x="1590.55" y="646.21"/>
    </timestep>
    <timestep time="6.00">
        <vehicle id="0" eclass="HBEFA3/PC_G_EU4" CO2="10760.43" CO="174.67" HC="1.06" NOx="4.71" PMx="0.23" fuel="3432.04" electricity="0.00" noise="72.77" route="!0" type="DEFAULT_VEHTYPE" waiting="0.00" lane="167463858#7_0" pos="49.10" speed="12.77" angle="81.51" x="1744.52" y="497.89"/>
        <vehicle id="1" eclass="HBEFA3/PC_G_EU4" CO2="8362.55" CO="154.20" HC="0.90" NOx="3.66" PMx="0.18" fuel="2667.25" electricity="0.00" noise="71.20" route="!1" type="DEFAULT_VEHTYPE" waiting="0.00" lane="-451813228_0" pos="32.20" speed="9.35" angle="272.41" x="1970.71" y="976.77"/>
        <vehicle id="2" eclass="HBEFA3/PC_G_EU4" CO2="5311.44" CO="110.00" HC="0.63" NOx="2.27" PMx="0.10" fuel="1694.11" electricity="0.00" noise="66.37" route="!2" type="DEFAULT_VEHTYPE" waiting="0.00" lane="177264617#8_0" pos="25.78" speed="7.59" angle="75.14" x="1701.54" y="1393.27"/>
        <vehicle id="3" eclass="HBEFA3/PC_G_EU4" CO2="5208.96" CO="126.20" HC="0.70" NOx="2.26" PMx="0.11" fuel="1661.43" electricity="0.00" noise="67.03" route="!3" type="DEFAULT_VEHTYPE" waiting="0.00" lane="374254706#0_0" pos="17.52" speed="6.06" angle="92.23" x="1780.49" y="2602.96"/>
        <vehicle id="4" eclass="HBEFA3/PC_G_EU4" CO2="2624.72" CO="164.78" HC="0.81" NOx="1.20" PMx="0.07" fuel="837.22" electricity="0.00" noise="55.94" route="!4" type="DEFAULT_VEHTYPE" waiting="2.00" lane="133349467#3_2" pos="0.20" speed="0.00" angle="57.37" x="1249.90" y="562.69"/>
        <vehicle id="5" eclass="HBEFA3/PC_G_EU4" CO2="2955.53" CO="148.03" HC="0.74" NOx="1.32" PMx="0.07" fuel="942.73" electricity="0.00" noise="62.53" route="!5" type="DEFAULT_VEHTYPE" waiting="0.00" lane="-335744081#1_0" pos="6.48" speed="1.38" angle="232.42" x="1589.46" y="645.37"/>
        <vehicle id="6" eclass="HBEFA3/PC_G_EU4" CO2="2624.72" CO="164.78" HC="0.81" NOx="1.20" PMx="0.07" fuel="837.22" electricity="0.00" noise="55.94" route="!6" type="DEFAULT_VEHTYPE" waiting="0.00" lane="-1260443237_0" pos="5.10" speed="0.00" angle="205.45" x="1579.73" y="454.56"/>
    </timestep>
    <timestep time="7.00">
        <vehicle id="0" eclass="HBEFA3/PC_G_EU4" CO2="9718.92" CO="141.38" HC="0.88" NOx="4.17" PMx="0.20" fuel="3099.85" electricity="0.00" noise="71.12" route="!0" type="DEFAULT_VEHTYPE" waiting="0.00" lane="167463858#7_0" pos="63.78" speed="14.68" angle="81.51" x="1759.04" y="500.05"/>
        <vehicle id="1" eclass="HBEFA3/PC_G_EU4" CO2="9999.01" CO="165.66" HC="1.00" NOx="4.37" PMx="0.21" fuel="3189.19" electricity="0.00" noise="72.19" route="!1" type="DEFAULT_VEHTYPE" waiting="0.00" lane="-451813228_0" pos="44.07" speed="11.87" angle="272.41" x="1958.85" y="977.27"/>
        <vehicle id="2" eclass="HBEFA3/PC_G_EU4" CO2="5285.61" CO="94.75" HC="0.56" NOx="2.22" PMx="0.10" fuel="1685.87" electricity="0.00" noise="66.01" route="!2" type="DEFAULT_VEHTYPE" waiting="0.00" lane="177264617#8_0" pos="34.74" speed="8.96" angle="75.14" x="1710.20" y="1395.57"/>
        <vehicle id="3" eclass="HBEFA3/PC_G_EU4" CO2="7929.18" CO="152.35" HC="0.88" NOx="3.47" PMx="0.17" fuel="2529.03" electricity="0.00" noise="70.96" route="!3" type="DEFAULT_VEHTYPE" waiting="0.00" lane="374254706#0_0" pos="26.17" speed="8.65" angle="92.23" x="1789.13" y="2602.62"/>
        <vehicle id="4" eclass="HBEFA3/PC_G_EU4" CO2="3847.49" CO="150.11" HC="0.77" NOx="1.72" PMx="0.09" fuel="1227.21" electricity="0.00" noise="67.37" route="!4" type="DEFAULT_VEHTYPE" waiting="0.00" lane=":1467956814_2_0" pos="2.39" speed="2.39" angle="54.06" x="1251.70" y="564.26"/>
        <vehicle id="5" eclass="HBEFA3/PC_G_EU4" CO2="3787.05" CO="136.71" HC="0.71" NOx="1.67" PMx="0.08" fuel="1207.93" electricity="0.00" noise="65.13" route="!5" type="DEFAULT_VEHTYPE" waiting="0.00" lane="-335744081#1_0" pos="9.66" speed="3.18" angle="232.42" x="1586.93" y="643.43"/>
        <vehicle id="6" eclass="HBEFA3/PC_G_EU4" CO2="3230.99" CO="147.39" HC="0.75" NOx="1.44" PMx="0.07" fuel="1030.58" electricity="0.00" noise="64.37" route="!6" type="DEFAULT_VEHTYPE" waiting="0.00" lane="-1260443237_0" pos="6.86" speed="1.76" angle="205.45" x="1578.97" y="452.97"/>
        <vehicle id="7" eclass="HBEFA3/PC_G_EU4" CO2="2624.72" CO="164.78" HC="0.81" NOx="1.20" PMx="0.07" fuel="837.22" electricity="0.00" noise="55.94" route="!7" type="DEFAULT_VEHTYPE" waiting="0.00" lane="167466938#4_0" pos="5.10" speed="0.00" angle="130.68" x="1266.52" y="1234.53"/>
    </timestep>
    <timestep time="8.00">
        <vehicle id="0" eclass="HBEFA3/PC_G_EU4" CO2="9337.96" CO="126.00" HC="0.80" NOx="3.95" PMx="0.19" fuel="2978.34" electricity="0.00" noise="70.76" route="!0" type="DEFAULT_VEHTYPE" waiting="0.00" lane="167463858#7_0" pos="80.06" speed="16.27" angle="81.51" x="1775.13" y="502.46"/>
        <vehicle id="1" eclass="HBEFA3/PC_G_EU4" CO2="0.00" CO="0.00" HC="0.00" NOx="0.00" PMx="0.00" fuel="0.00" electricity="0.00" noise="57.04" route="!1" type="DEFAULT_VEHTYPE" waiting="0.00" lane="-451813228_0" pos="53.55" speed="9.47" angle="272.41" x="1949.39" y="977.67"/>
        <vehicle id="2" eclass="HBEFA3/PC_G_EU4" CO2="8221.87" CO="135.60" HC="0.81" NOx="3.55" PMx="0.17" fuel="2622.37" electricity="0.00" noise="70.07" route="!2" type="DEFAULT_VEHTYPE" waiting="0.00" lane="177264617#8_0" pos="45.81" speed="11.06" angle="75.14" x="1720.89" y="1398.41"/>
        <vehicle id="3" eclass="HBEFA3/PC_G_EU4" CO2="6239.40" CO="102.37" HC="0.61" NOx="2.64" PMx="0.12" fuel="1990.07" electricity="0.00" noise="67.38" route="!3" type="DEFAULT_VEHTYPE" waiting="0.00" lane="374254706#0_0" pos="36.37" speed="10.20" angle="92.23" x="1799.32" y="2602.22"/>
        <vehicle id="4" eclass="HBEFA3/PC_G_EU4" CO2="3867.66" CO="126.80" HC="0.67" NOx="1.68" PMx="0.08" fuel="1233.64" electricity="0.00" noise="64.49" route="!4" type="DEFAULT_VEHTYPE" waiting="0.00" lane=":1467956814_2_0" pos="6.36" speed="3.97" angle="10.54" x="1251.75" y="568.03"/>
        <vehicle id="5" eclass="HBEFA3/PC_G_EU4" CO2="0.00" CO="0.00" HC="0.00" NOx="0.00" PMx="0.00" fuel="0.00" electricity="0.00" noise="55.42" route="!5" type="DEFAULT_VEHTYPE" waiting="0.00" lane=":3428516579_10_0" pos="1.26" speed="2.78" angle="205.09" x="1586.91" y="640.97"/>
        <vehicle id="6" eclass="HBEFA3/PC_G_EU4" CO2="4953.44" CO="145.28" HC="0.78" NOx="2.19" PMx="0.11" fuel="1579.94" electricity="0.00" noise="68.52" route="!6" type="DEFAULT_VEHTYPE" waiting="0.00" lane="-1260443237_0" pos="11.10" speed="4.24" angle="205.45" x="1577.15" y="449.14"/>
        <vehicle id="7" eclass="HBEFA3/PC_G_EU4" CO2="3432.93" CO="147.84" HC="0.75" NOx="1.53" PMx="0.08" fuel="1094.99" electricity="0.00" noise="65.48" route="!7" type="DEFAULT_VEHTYPE" waiting="0.00" lane="167466938#4_0" pos="7.09" speed="1.99" angle="130.68" x="1268.03" y="1233.23"/>
        <vehicle id="8" eclass="HBEFA3/PC_G_EU4" CO2="2624.72" CO="164.78" HC="0.81" NOx="1.20" PMx="0.07" fuel="837.22" electricity="0.00" noise="55.94" route="!8" type="DEFAULT_VEHTYPE" waiting="0.00" lane="-335744081#2_0" pos="0.20" speed="0.00" angle="233.40" x="1604.28" y="656.78"/>
    </timestep>
    <timestep time="9.00">
        <vehicle id="0" eclass="HBEFA3/PC_G_EU4" CO2="14876.91" CO="232.56" HC="1.42" NOx="6.50" PMx="0.34" fuel="4744.97" electricity="0.00" noise="75.23" route="!0" type="DEFAULT_VEHTYPE" waiting="0.00" lane="167463858#7_0" pos="98.78" speed="18.72" angle="79.90" x="1793.57" y="505.69"/>
        <vehicle id="1" eclass="HBEFA3/PC_G_EU4" CO2="0.00" CO="0.00" HC="0.00" NOx="0.00" PMx="0.00" fuel="0.00" electricity="0.00" noise="50.58" route="!1" type="DEFAULT_VEHTYPE" waiting="0.00" lane="-451813228_0" pos="59.32" speed="5.77" angle="272.41" x="1943.62" y="977.91"/>
        <vehicle id="2" eclass="HBEFA3/PC_G_EU4" CO2="9606.39" CO="148.04" HC="0.91" NOx="4.15" PMx="0.20" fuel="3063.96" electricity="0.00" noise="71.23" route="!2" type="DEFAULT_VEHTYPE" waiting="0.00" lane="177264617#8_0" pos="59.00" speed="13.19" angle="75.14" x="1733.65" y="1401.80"/>
        <vehicle id="3" eclass="HBEFA3/PC_G_EU4" CO2="6404.81" CO="93.79" HC="0.58" NOx="2.68" PMx="0.12" fuel="2042.83" electricity="0.00" noise="67.54" route="!3" type="DEFAULT_VEHTYPE" waiting="0.00" lane="374254706#0_0" pos="47.97" speed="11.60" angle="92.23" x="1810.91" y="2601.77"/>
        <vehicle id="4" eclass="HBEFA3/PC_G_EU4" CO2="6048.19" CO="139.92" HC="0.78" NOx="2.65" PMx="0.13" fuel="1929.10" electricity="0.00" noise="68.99" route="!4" type="DEFAULT_VEHTYPE" waiting="0.00" lane="166479009#0_0" pos="0.55" speed="6.35" angle="322.78" x="1248.26" y="573.25"/>
        <vehicle id="5" eclass="HBEFA3/PC_G_EU4" CO2="0.00" CO="0.00" HC="0.00" NOx="0.00" PMx="0.00" fuel="0.00" electricity="0.00" noise="52.17" route="!5" type="DEFAULT_VEHTYPE" waiting="0.00" lane=":3428516579_10_0" pos="3.01" speed="1.75" angle="155.83" x="1588.60" y="640.82"/>
        <vehicle id="6" eclass="HBEFA3/PC_G_EU4" CO2="5281.89" CO="126.00" HC="0.70" NOx="2.29" PMx="0.11" fuel="1684.69" electricity="0.00" noise="67.11" route="!6" type="DEFAULT_VEHTYPE" waiting="0.00" lane="-1260443237_0" pos="17.30" speed="6.20" angle="205.45" x="1574.48" y="443.55"/>
        <vehicle id="7" eclass="HBEFA3/PC_G_EU4" CO2="3553.89" CO="128.23" HC="0.67" NOx="1.55" PMx="0.07" fuel="1133.56" electricity="0.00" noise="63.62" route="!7" type="DEFAULT_VEHTYPE" waiting="0.00" lane="167466938#4_0" pos="10.52" speed="3.43" angle="130.68" x="1270.63" y="1230.99"/>
        <vehicle id="8" eclass="HBEFA3/PC_G_EU4" CO2="2853.40" CO="148.95" HC="0.74" NOx="1.28" PMx="0.07" fuel="910.15" electricity="0.00" noise="61.66" route="!8" type="DEFAULT_VEHTYPE" waiting="0.00" lane=":11715716734_2_0" pos="1.20" speed="1.20" angle="225.29" x="1603.89" y="655.64"/>
    </timestep>
    <timestep time="10.00">
        <vehicle id="0" eclass="HBEFA3/PC_G_EU4" CO2="15792.14" CO="248.94" HC="1.52" NOx="6.88" PMx="0.36" fuel="5036.88" electricity="0.00" noise="75.69" route="!0" type="DEFAULT_VEHTYPE" waiting="0.00" lane="167463858#7_0" pos="119.77" speed="20.99" angle="79.90" x="1814.23" y="509.37"/>
        <vehicle id="1" eclass="HBEFA3/PC_G_EU4" CO2="0.00" CO="0.00" HC="0.00" NOx="0.00" PMx="0.00" fuel="0.00" electricity="0.00" noise="48.34" route="!1" type="DEFAULT_VEHTYPE" waiting="0.00" lane=":4486273636_9_0" pos="0.10" speed="3.36" angle="261.70" x="1940.51" y="977.15"/>
        <vehicle id="10" eclass="HBEFA3/PC_G_EU4" CO2="2624.72" CO="164.78" HC="0.81" NOx="1.20" PMx="0.07" fuel="837.22" electricity="0.00" noise="55.94" route="!10" type="DEFAULT_VEHTYPE" waiting="0.00" lane="335566460#0_0" pos="5.10" speed="0.00" angle="44.04" x="1884.53" y="729.96"/>
        <vehicle id="2" eclass="HBEFA3/PC_G_EU4" CO2="0.00" CO="0.00" HC="0.00" NOx="0.00" PMx="0.00" fuel="0.00" electricity="0.00" noise="62.84" route="!2" type="DEFAULT_VEHTYPE" waiting="0.00" lane="177264617#8_0" pos="71.77" speed="12.77" angle="75.14" x="1745.99" y="1405.07"/>
        <vehicle id="3" eclass="HBEFA3/PC_G_EU4" CO2="7016.81" CO="96.02" HC="0.60" NOx="2.93" PMx="0.13" fuel="2238.02" electricity="0.00" noise="68.32" route="!3" type="DEFAULT_VEHTYPE" waiting="0.00" lane="374254706#0_0" pos="60.97" speed="13.00" angle="92.23" x="1823.91" y="2601.26"/>
        <vehicle id="4" eclass="HBEFA3/PC_G_EU4" CO2="4726.22" CO="97.12" HC="0.55" NOx="1.99" PMx="0.09" fuel="1507.46" electricity="0.00" noise="65.14" route="!4" type="DEFAULT_VEHTYPE" waiting="0.00" lane="166479009#0_0" pos="8.22" speed="7.66" angle="317.64" x="1243.24" y="578.75"/>
        <vehicle id="5" eclass="HBEFA3/PC_G_EU4" CO2="2706.79" CO="127.79" HC="0.64" NOx="1.18" PMx="0.06" fuel="863.38" electricity="0.00" noise="59.35" route="!5" type="DEFAULT_VEHTYPE" waiting="0.00" lane="335744081#1_0" pos="2.10" speed="2.31" angle="83.90" x="1590.48" y="642.12"/>
        <vehicle id="6" eclass="HBEFA3/PC_G_EU4" CO2="7561.73" CO="145.00" HC="0.84" NOx="3.30" PMx="0.16" fuel="2411.83" electricity="0.00" noise="70.27" route="!6" type="DEFAULT_VEHTYPE" waiting="0.00" lane="-1260443237_0" pos="25.93" speed="8.63" angle="205.45" x="1570.77" y="435.75"/>
        <vehicle id="7" eclass="HBEFA3/PC_G_EU4" CO2="5846.34" CO="141.89" HC="0.78" NOx="2.57" PMx="0.12" fuel="1864.72" electricity="0.00" noise="69.01" route="!7" type="DEFAULT_VEHTYPE" waiting="0.00" lane="167466938#4_0" pos="16.38" speed="5.86" angle="130.68" x="1275.07" y="1227.17"/>
        <vehicle id="8" eclass="HBEFA3/PC_G_EU4" CO2="2569.10" CO="161.21" HC="0.79" NOx="1.17" PMx="0.06" fuel="819.48" electricity="0.00" noise="51.34" route="!8" type="DEFAULT_VEHTYPE" waiting="0.00" lane=":11715716734_2_0" pos="1.33" speed="0.14" angle="224.33" x="1603.84" y="655.51"/>
    </timestep>
    <timestep time="11.00">
        <vehicle id="0" eclass="HBEFA3/PC_G_EU4" CO2="18239.51" CO="301.34" HC="1.82" NOx="7.98" PMx="0.43" fuel="5817.47" electricity="0.00" noise="77.19" route="!0" type="DEFAULT_VEHTYPE" waiting="0.00" lane="167463858#7_0" pos="143.12" speed="23.35" angle="79.90" x="1837.22" y="513.47"/>
        <vehicle id="1" eclass="HBEFA3/PC_G_EU4" CO2="0.00" CO="0.00" HC="0.00" NOx="0.00" PMx="0.00" fuel="0.00" electricity="0.00" noise="54.34" route="!1" type="DEFAULT_VEHTYPE" waiting="0.00" lane=":4486273636_9_0" pos="2.82" speed="2.72" angle="202.58" x="1941.33" y="975.03"/>
        <vehicle id="10" eclass="HBEFA3/PC_G_EU4" CO2="3201.94" CO="147.37" HC="0.75" NOx="1.43" PMx="0.07" fuel="1021.31" electricity="0.00" noise="64.20" route="!10" type="DEFAULT_VEHTYPE" waiting="0.00" lane="335566460#0_0" pos="6.83" speed="1.73" angle="44.04" x="1885.73" y="731.20"/>
        <vehicle id="2" eclass="HBEFA3/PC_G_EU4" CO2="3705.06" CO="26.57" HC="0.21" NOx="1.37" PMx="0.05" fuel="1181.75" electricity="0.00" noise="65.17" route="!2" type="DEFAULT_VEHTYPE" waiting="0.00" lane="177264617#8_0" pos="84.96" speed="13.19" angle="75.14" x="1758.74" y="1408.46"/>
        <vehicle id="3" eclass="HBEFA3/PC_G_EU4" CO2="8325.66" CO="113.35" HC="0.72" NOx="3.51" PMx="0.17" fuel="2655.47" electricity="0.00" noise="69.74" route="!3" type="DEFAULT_VEHTYPE" waiting="0.00" lane="374254706#0_0" pos="75.53" speed="14.56" angle="92.23" x="1838.46" y="2600.70"/>
        <vehicle id="4" eclass="HBEFA3/PC_G_EU4" CO2="8740.90" CO="154.20" HC="0.91" NOx="3.82" PMx="0.19" fuel="2787.92" electricity="0.00" noise="71.28" route="!4" type="DEFAULT_VEHTYPE" waiting="0.00" lane="166479009#0_0" pos="18.38" speed="10.16" angle="9.32" x="1244.59" y="588.42"/>
        <vehicle id="5" eclass="HBEFA3/PC_G_EU4" CO2="3659.74" CO="125.59" HC="0.66" NOx="1.59" PMx="0.07" fuel="1167.32" electricity="0.00" noise="63.79" route="!5" type="DEFAULT_VEHTYPE" waiting="0.00" lane="335744081#1_0" pos="5.85" speed="3.76" angle="52.42" x="1593.46" y="644.41"/>
        <vehicle id="6" eclass="HBEFA3/PC_G_EU4" CO2="3670.65" CO="58.26" HC="0.35" NOx="1.45" PMx="0.05" fuel="1170.78" electricity="0.00" noise="63.44" route="!6" type="DEFAULT_VEHTYPE" waiting="0.00" lane="-1260443237_0" pos="35.21" speed="9.28" angle="223.10" x="1565.34" y="428.36"/>
        <vehicle id="7" eclass="HBEFA3/PC_G_EU4" CO2="6198.21" CO="125.20" HC="0.72" NOx="2.68" PMx="0.12" fuel="1976.94" electricity="0.00" noise="68.09" route="!7" type="DEFAULT_VEHTYPE" waiting="0.00" lane=":cluster_1788595508_1788595510_8_0" pos="2.53" speed="7.86" angle="130.68" x="1281.03" y="1222.05"/>
        <vehicle id="8" eclass="HBEFA3/PC_G_EU4" CO2="2624.02" CO="164.69" HC="0.81" NOx="1.20" PMx="0.07" fuel="837.00" electricity="0.00" noise="55.36" route="!8" type="DEFAULT_VEHTYPE" waiting="1.00" lane=":11715716734_2_0" pos="1.34" speed="0.00" angle="224.30" x="1603.84" y="655.51"/>
    </timestep>
    <timestep time="12.00">
        <vehicle id="0" eclass="HBEFA3/PC_G_EU4" CO2="17493.52" CO="291.27" HC="1.76" NOx="7.58" PMx="0.42" fuel="5579.54" electricity="0.00" noise="76.78" route="!0" type="DEFAULT_VEHTYPE" waiting="0.00" lane="167463858#7_0" pos="168.45" speed="25.34" angle="79.51" x="1862.16" y="517.94"/>
        <vehicle id="1" eclass="HBEFA3/PC_G_EU4" CO2="2662.63" CO="113.80" HC="0.58" NOx="1.14" PMx="0.05" fuel="849.30" electricity="0.00" noise="59.23" route="!1" type="DEFAULT_VEHTYPE" waiting="0.00" lane="451813228_0" pos="2.75" speed="3.16" angle="111.88" x="1944.41" y="974.67"/>
        <vehicle id="10" eclass="HBEFA3/PC_G_EU4" CO2="3554.73" CO="131.16" HC="0.68" NOx="1.55" PMx="0.07" fuel="1133.83" electricity="0.00" noise="63.84" route="!10" type="DEFAULT_VEHTYPE" waiting="0.00" lane="335566460#0_0" pos="10.06" speed="3.23" angle="44.04" x="1887.97" y="733.52"/>
        <vehicle id="12" eclass="HBEFA3/PC_G_EU4" CO2="2624.72" CO="164.78" HC="0.81" NOx="1.20" PMx="0.07" fuel="837.22" electricity="0.00" noise="55.94" route="!12" type="DEFAULT_VEHTYPE" waiting="0.00" lane="758604665#4_0" pos="5.10" speed="0.00" angle="109.64" x="1245.25" y="422.30"/>
        <vehicle id="2" eclass="HBEFA3/PC_G_EU4" CO2="3107.75" CO="12.76" HC="0.13" NOx="1.08" PMx="0.03" fuel="991.24" electricity="0.00" noise="64.82" route="!2" type="DEFAULT_VEHTYPE" waiting="0.00" lane="177264617#8_0" pos="98.38" speed="13.42" angle="75.14" x="1771.71" y="1411.90"/>
        <vehicle id="3" eclass="HBEFA3/PC_G_EU4" CO2="2524.95" CO="0.00" HC="0.03" NOx="0.77" PMx="0.02" fuel="805.35" electricity="0.00" noise="65.13" route="!3" type="DEFAULT_VEHTYPE" waiting="0.00" lane=":1830940483_6_0" pos="8.39" speed="14.59" angle="96.18" x="1852.94" y="2598.95"/>
        <vehicle id="4" eclass="HBEFA3/PC_G_EU4" CO2="9570.70" CO="152.62" HC="0.93" NOx="4.15" PMx="0.20" fuel="3052.58" electricity="0.00" noise="71.41" route="!4" type="DEFAULT_VEHTYPE" waiting="0.00" lane="166479009#0_1" pos="30.81" speed="12.43" angle="10.49" x="1243.28" y="599.51"/>
        <vehicle id="5" eclass="HBEFA3/PC_G_EU4" CO2="4520.76" CO="120.15" HC="0.65" NOx="1.95" PMx="0.09" fuel="1441.93" electricity="0.00" noise="65.55" route="!5" type="DEFAULT_VEHTYPE" waiting="0.00" lane=":11715716734_3_0" pos="1.54" speed="5.43" angle="52.42" x="1597.76" y="647.72"/>
        <vehicle id="6" eclass="HBEFA3/PC_G_EU4" CO2="0.00" CO="0.00" HC="0.00" NOx="0.00" PMx="0.00" fuel="0.00" electricity="0.00" noise="55.67" route="!6" type="DEFAULT_VEHTYPE" waiting="0.00" lane=":7085444539_0_0" pos="6.44" speed="7.62" angle="255.18" x="1558.64" y="425.42"/>
        <vehicle id="7" eclass="HBEFA3/PC_G_EU4" CO2="8751.46" CO="152.95" HC="0.91" NOx="3.82" PMx="0.19" fuel="2791.29" electricity="0.00" noise="71.20" route="!7" type="DEFAULT_VEHTYPE" waiting="0.00" lane=":cluster_1788595508_1788595510_8_0" pos="12.86" speed="10.33" angle="130.68" x="1288.86" y="1215.32"/>
        <vehicle id="8" eclass="HBEFA3/PC_G_EU4" CO2="2624.51" CO="164.74" HC="0.81" NOx="1.20" PMx="0.07" fuel="837.15" electricity="0.00" noise="55.93" route="!8" type="DEFAULT_VEHTYPE" waiting="2.00" lane=":11715716734_2_0" pos="1.34" speed="0.00" angle="224.29" x="1603.84" y="655.51"/>
    </timestep>
    <timestep time="13.00">
        <vehicle id="0" eclass="HBEFA3/PC_G_EU4" CO2="14923.58" CO="244.32" HC="1.49" NOx="6.34" PMx="0.35" fuel="4759.87" electricity="0.00" noise="75.71" route="!0" type="DEFAULT_VEHTYPE" waiting="0.00" lane="167463858#7_0" pos="195.24" speed="26.79" angle="79.42" x="1888.49" y="522.86"/>
        <vehicle id="1" eclass="HBEFA3/PC_G_EU4" CO2="4487.13" CO="125.79" HC="0.68" NOx="1.95" PMx="0.09" fuel="1431.21" electricity="0.00" noise="65.84" route="!1" type="DEFAULT_VEHTYPE" waiting="0.00" lane="451813228_0" pos="7.71" speed="4.96" angle="92.41" x="1949.36" y="974.47"/>
        <vehicle id="10" eclass="HBEFA3/PC_G_EU4" CO2="6066.30" CO="146.89" HC="0.81" NOx="2.67" PMx="0.13" fuel="1934.88" electricity="0.00" noise="69.69" route="!10" type="DEFAULT_VEHTYPE" waiting="0.00" lane="335566460#0_0" pos="15.88" speed="5.82" angle="44.04" x="1892.02" y="737.71"/>
        <vehicle id="12" eclass="HBEFA3/PC_G_EU4" CO2="3533.94" CO="148.26" HC="0.76" NOx="1.58" PMx="0.08" fuel="1127.20" electricity="0.00" noise="65.97" route="!12" type="DEFAULT_VEHTYPE" waiting="0.00" lane="758604665#4_0" pos="7.20" speed="2.10" angle="109.64" x="1247.23" y="421.59"/>
        <vehicle id="13" eclass="HBEFA3/PC_G_EU4" CO2="2624.72" CO="164.78" HC="0.81" NOx="1.20" PMx="0.07" fuel="837.22" electricity="0.00" noise="55.94" route="!13" type="DEFAULT_VEHTYPE" waiting="0.00" lane="-167454805#0_0" pos="5.10" speed="0.00" angle="274.85" x="2042.34" y="957.43"/>
        <vehicle id="2" eclass="HBEFA3/PC_G_EU4" CO2="0.00" CO="0.00" HC="0.00" NOx="0.00" PMx="0.00" fuel="0.00" electricity="0.00" noise="55.58" route="!2" type="DEFAULT_VEHTYPE" waiting="0.00" lane="177264617#8_0" pos="107.30" speed="8.92" angle="75.14" x="1780.34" y="1414.19"/>
        <vehicle id="3" eclass="HBEFA3/PC_G_EU4" CO2="0.00" CO="0.00" HC="0.00" NOx="0.00" PMx="0.00" fuel="0.00" electricity="0.00" noise="63.06" route="!3" type="DEFAULT_VEHTYPE" waiting="0.00" lane="374254706#1_0" pos="7.37" speed="13.82" angle="94.27" x="1866.72" y="2597.98"/>
        <vehicle id="4" eclass="HBEFA3/PC_G_EU4" CO2="7992.66" CO="109.84" HC="0.69" NOx="3.37" PMx="0.16" fuel="2549.26" electricity="0.00" noise="69.39" route="!4" type="DEFAULT_VEHTYPE" waiting="0.00" lane="166479009#0_1" pos="44.79" speed="13.98" angle="15.79" x="1247.19" y="613.34"/>
        <vehicle id="5" eclass="HBEFA3/PC_G_EU4" CO2="7277.46" CO="146.59" HC="0.84" NOx="3.19" PMx="0.15" fuel="2321.17" electricity="0.00" noise="70.28" route="!5" type="DEFAULT_VEHTYPE" waiting="0.00" lane=":11715716734_3_0" pos="9.48" speed="7.94" angle="52.41" x="1604.05" y="652.56"/>
        <vehicle id="6" eclass="HBEFA3/PC_G_EU4" CO2="3290.86" CO="61.82" HC="0.36" NOx="1.30" PMx="0.05" fuel="1049.65" electricity="0.00" noise="62.46" route="!6" type="DEFAULT_VEHTYPE" waiting="0.00" lane="758634832#2_0" pos="4.02" speed="8.18" angle="289.89" x="1550.83" y="427.70"/>
        <vehicle id="7" eclass="HBEFA3/PC_G_EU4" CO2="7625.23" CO="115.39" HC="0.71" NOx="3.24" PMx="0.15" fuel="2432.08" electricity="0.00" noise="69.05" route="!7" type="DEFAULT_VEHTYPE" waiting="0.00" lane="167466938#5_0" pos="9.04" speed="12.05" angle="130.67" x="1298.00" y="1207.47"/>
        <vehicle id="8" eclass="HBEFA3/PC_G_EU4" CO2="2624.72" CO="164.78" HC="0.81" NOx="1.20" PMx="0.07" fuel="837.22" electricity="0.00" noise="55.93" route="!8" type="DEFAULT_VEHTYPE" waiting="3.00" lane=":11715716734_2_0" pos="1.34" speed="0.00" angle="224.29" x="1603.84" y="655.51"/>
    </timestep>
    <timestep time="14.00">
        <vehicle id="0" eclass="HBEFA3/PC_G_EU4" CO2="24379.22" CO="453.17" HC="2.67" NOx="10.75" PMx="0.61" fuel="7775.73" electricity="0.00" noise="80.46" route="!0" type="DEFAULT_VEHTYPE" waiting="0.00" lane="167463858#8_0" pos="7.38" speed="29.26" angle="79.39" x="1917.25" y="528.24"/>