<?xml version="1.0" encoding="UTF-8"?>

<!-- generated on 2024-04-16 21:48:25 by Eclipse SUMO sumo Version 1.19.0
<configuration xmlns:xsi="http://www.w3.org/2001/XMLSchema-instance" xsi:noNamespaceSchemaLocation="http://sumo.dlr.de/xsd/sumoConfiguration.xsd">

    <input>
        <net-file value="final.net.xml"/>
        <route-files value="BRTSroutes.rou.xml"/>
    </input>

    <output>
        <emission-output value="BRTS_EMISSIONS.xml"/>
    </output>

    <time>
        <begin value="0"/>
        <end value="1000"/>
    </time>

    <processing>
        <ignore-route-errors value="True"/>
        <max-num-vehicles value="3"/>
    </processing>

</configuration>
-->

<emission-export xmlns:xsi="http://www.w3.org/2001/XMLSchema-instance" xsi:noNamespaceSchemaLocation="http://sumo.dlr.de/xsd/emission_file.xsd">
    <timestep time="0.00">
        <vehicle id="0" eclass="HBEFA3/PC_G_EU4" CO2="2624.72" CO="164.78" HC="0.81" NOx="1.20" PMx="0.07" fuel="837.22" electricity="0.00" noise="55.94" route="!0!var#1" type="DEFAULT_VEHTYPE" waiting="0.00" lane="167466938#4_0" pos="5.10" speed="0.00" angle="130.68" x="1266.52" y="1234.53"/>
    </timestep>
    <timestep time="1.00">
        <vehicle id="0" eclass="HBEFA3/PC_G_EU4" CO2="3329.71" CO="147.54" HC="0.75" NOx="1.49" PMx="0.07" fuel="1062.07" electricity="0.00" noise="64.93" route="!0!var#1" type="DEFAULT_VEHTYPE" waiting="0.00" lane="167466938#4_0" pos="6.98" speed="1.88" angle="130.68" x="1267.94" y="1233.30"/>
        <vehicle id="1" eclass="HBEFA3/PC_G_EU4" CO2="2624.72" CO="164.78" HC="0.81" NOx="1.20" PMx="0.07" fuel="837.22" electricity="0.00" noise="55.94" route="!1!var#1" type="DEFAULT_VEHTYPE" waiting="0.00" lane="-451813314#0_0" pos="5.10" speed="0.00" angle="14.14" x="1291.86" y="1109.08"/>
    </timestep>
    <timestep time="2.00">
        <vehicle id="0" eclass="HBEFA3/PC_G_EU4" CO2="4177.16" CO="135.30" HC="0.71" NOx="1.83" PMx="0.09" fuel="1332.35" electricity="0.00" noise="66.00" route="!0!var#1" type="DEFAULT_VEHTYPE" waiting="0.00" lane="167466938#4_0" pos="10.80" speed="3.82" angle="130.68" x="1270.84" y="1230.81"/>
        <vehicle id="1" eclass="HBEFA3/PC_G_EU4" CO2="3655.34" CO="148.89" HC="0.76" NOx="1.63" PMx="0.08" fuel="1165.92" electricity="0.00" noise="66.54" route="!1!var#1" type="DEFAULT_VEHTYPE" waiting="0.00" lane="-451813314#0_0" pos="7.32" speed="2.22" angle="14.14" x="1292.40" y="1111.23"/>
        <vehicle id="2" eclass="HBEFA3/PC_G_EU4" CO2="2624.72" CO="164.78" HC="0.81" NOx="1.20" PMx="0.07" fuel="837.22" electricity="0.00" noise="55.94" route="!2!var#1" type="DEFAULT_VEHTYPE" waiting="0.00" lane="177265332_0" pos="5.10" speed="0.00" angle="316.97" x="1919.46" y="1406.85"/>
    </timestep>
    <timestep time="3.00">
        <vehicle id="0" eclass="HBEFA3/PC_G_EU4" CO2="6073.94" CO="141.66" HC="0.79" NOx="2.66" PMx="0.13" fuel="1937.31" electricity="0.00" noise="69.17" route="!0!var#1" type="DEFAULT_VEHTYPE" waiting="0.00" lane="167466938#4_0" pos="17.05" speed="6.25" angle="130.68" x="1275.58" y="1226.74"/>
        <vehicle id="1" eclass="HBEFA3/PC_G_EU4" CO2="4993.66" CO="141.55" HC="0.76" NOx="2.20" PMx="0.11" fuel="1592.77" electricity="0.00" noise="68.10" route="!1!var#1" type="DEFAULT_VEHTYPE" waiting="0.00" lane=":4486274237_10_0" pos="3.78" speed="4.57" angle="7.98" x="1292.99" y="1115.75"/>
        <vehicle id="2" eclass="HBEFA3/PC_G_EU4" CO2="3579.96" CO="148.48" HC="0.76" NOx="1.60" PMx="0.08" fuel="1141.88" electricity="0.00" noise="66.19" route="!2!var#1" type="DEFAULT_VEHTYPE" waiting="0.00" lane="177265332_0" pos="7.24" speed="2.14" angle="316.97" x="1918.00" y="1408.41"/>
    </timestep>
    <timestep time="4.00">
        <vehicle id="0" eclass="HBEFA3/PC_G_EU4" CO2="5832.95" CO="115.77" HC="0.67" NOx="2.50" PMx="0.11" fuel="1860.44" electricity="0.00" noise="67.26" route="!0!var#1" type="DEFAULT_VEHTYPE" waiting="0.00" lane=":cluster_1788595508_1788595510_8_0" pos="3.38" speed="8.04" angle="130.68" x="1281.67" y="1221.50"/>
        <vehicle id="1" eclass="HBEFA3/PC_G_EU4" CO2="4926.76" CO="117.64" HC="0.65" NOx="2.12" PMx="0.10" fuel="1571.42" electricity="0.00" noise="66.12" route="!1!var#1" type="DEFAULT_VEHTYPE" waiting="0.00" lane=":4486274237_18_0" pos="5.94" speed="6.28" angle="326.04" x="1289.95" y="1121.00"/>
        <vehicle id="2" eclass="HBEFA3/PC_G_EU4" CO2="3565.32" CO="126.65" HC="0.66" NOx="1.55" PMx="0.07" fuel="1137.21" electricity="0.00" noise="63.55" route="!2!var#1" type="DEFAULT_VEHTYPE" waiting="0.00" lane="177265332_0" pos="10.79" speed="3.55" angle="316.97" x="1915.57" y="1411.01"/>
    </timestep>
    <timestep time="5.00">
        <vehicle id="0" eclass="HBEFA3/PC_G_EU4" CO2="7323.87" CO="126.28" HC="0.75" NOx="3.15" PMx="0.15" fuel="2335.96" electricity="0.00" noise="69.10" route="!0!var#1" type="DEFAULT_VEHTYPE" waiting="0.00" lane=":cluster_1788595508_1788595510_8_0" pos="13.40" speed="10.03" angle="130.68" x="1289.27" y="1214.97"/>
        <vehicle id="1" eclass="HBEFA3/PC_G_EU4" CO2="3078.79" CO="72.91" HC="0.40" NOx="1.23" PMx="0.05" fuel="982.02" electricity="0.00" noise="61.59" route="!1!var#1" type="DEFAULT_VEHTYPE" waiting="0.00" lane="-1258614735_0" pos="2.61" speed="6.83" angle="286.75" x="1283.54" y="1123.19"/>
        <vehicle id="2" eclass="HBEFA3/PC_G_EU4" CO2="4204.17" CO="118.20" HC="0.64" NOx="1.81" PMx="0.08" fuel="1340.96" electricity="0.00" noise="64.80" route="!2!var#1" type="DEFAULT_VEHTYPE" waiting="0.00" lane="177265332_0" pos="15.88" speed="5.09" angle="316.97" x="1912.10" y="1414.73"/>
    </timestep>
    <timestep time="6.00">
        <vehicle id="0" eclass="HBEFA3/PC_G_EU4" CO2="6455.34" CO="95.92" HC="0.59" NOx="2.71" PMx="0.12" fuel="2058.94" electricity="0.00" noise="67.60" route="!0!var#1" type="DEFAULT_VEHTYPE" waiting="0.00" lane="167466938#5_0" pos="9.00" speed="11.46" angle="130.67" x="1297.97" y="1207.49"/>
        <vehicle id="1" eclass="HBEFA3/PC_G_EU4" CO2="0.00" CO="0.00" HC="0.00" NOx="0.00" PMx="0.00" fuel="0.00" electricity="0.00" noise="50.30" route="!1!var#1" type="DEFAULT_VEHTYPE" waiting="0.00" lane="-1258614735_0" pos="7.14" speed="4.53" angle="282.85" x="1279.13" y="1124.19"/>
        <vehicle id="2" eclass="HBEFA3/PC_G_EU4" CO2="4951.26" CO="112.86" HC="0.63" NOx="2.12" PMx="0.10" fuel="1579.23" electricity="0.00" noise="65.94" route="!2!var#1" type="DEFAULT_VEHTYPE" waiting="0.00" lane="177265332_0" pos="22.59" speed="6.71" angle="316.97" x="1907.52" y="1419.63"/>
    </timestep>
    <timestep time="7.00">
        <vehicle id="0" eclass="HBEFA3/PC_G_EU4" CO2="11293.37" CO="178.11" HC="1.09" NOx="4.93" PMx="0.25" fuel="3602.01" electricity="0.00" noise="72.96" route="!0!var#1" type="DEFAULT_VEHTYPE" waiting="0.00" lane=":1877197534_2_0" pos="1.96" speed="13.93" angle="130.70" x="1308.53" y="1198.41"/>
        <vehicle id="1" eclass="HBEFA3/PC_G_EU4" CO2="5218.46" CO="122.30" HC="0.68" NOx="2.26" PMx="0.10" fuel="1664.46" electricity="0.00" noise="66.80" route="!1!var#1" type="DEFAULT_VEHTYPE" waiting="0.00" lane=":1788595507_4_0" pos="5.56" speed="6.39" angle="266.79" x="1272.86" y="1124.15"/>
        <vehicle id="2" eclass="HBEFA3/PC_G_EU4" CO2="6479.69" CO="122.44" HC="0.71" NOx="2.79" PMx="0.13" fuel="2066.72" electricity="0.00" noise="68.23" route="!2!var#1" type="DEFAULT_VEHTYPE" waiting="0.00" lane="177265332_0" pos="31.25" speed="8.66" angle="316.97" x="1901.62" y="1425.96"/>
    </timestep>
    <timestep time="8.00">
        <vehicle id="0" eclass="HBEFA3/PC_G_EU4" CO2="8073.08" CO="104.18" HC="0.67" NOx="3.37" PMx="0.16" fuel="2574.91" electricity="0.00" noise="69.58" route="!0!var#1" type="DEFAULT_VEHTYPE" waiting="0.00" lane="167466938#6_0" pos="7.86" speed="15.33" angle="130.68" x="1320.15" y="1188.42"/>
        <vehicle id="1" eclass="HBEFA3/PC_G_EU4" CO2="4218.32" CO="88.76" HC="0.50" NOx="1.75" PMx="0.07" fuel="1345.46" electricity="0.00" noise="64.11" route="!1!var#1" type="DEFAULT_VEHTYPE" waiting="0.00" lane=":1788595507_4_0" pos="13.04" speed="7.48" angle="212.08" x="1268.15" y="1118.80"/>
        <vehicle id="2" eclass="HBEFA3/PC_G_EU4" CO2="8091.91" CO="135.38" HC="0.81" NOx="3.50" PMx="0.17" fuel="2580.92" electricity="0.00" noise="69.99" route="!2!var#1" type="DEFAULT_VEHTYPE" waiting="0.00" lane="177265332_0" pos="42.03" speed="10.78" angle="316.97" x="1894.26" y="1433.84"/>
    </timestep>
    <timestep time="9.00">
        <vehicle id="0" eclass="HBEFA3/PC_G_EU4" CO2="11349.62" CO="163.84" HC="1.02" NOx="4.87" PMx="0.24" fuel="3619.95" electricity="0.00" noise="72.47" route="!0!var#1" type="DEFAULT_VEHTYPE" waiting="0.00" lane="167466938#6_0" pos="25.10" speed="17.25" angle="130.53" x="1333.23" y="1177.19"/>
        <vehicle id="1" eclass="HBEFA3/PC_G_EU4" CO2="2037.99" CO="44.19" HC="0.25" NOx="0.73" PMx="0.02" fuel="650.05" electricity="0.00" noise="59.85" route="!1!var#1" type="DEFAULT_VEHTYPE" waiting="0.00" lane="85206623#2_0" pos="6.63" speed="7.45" angle="194.80" x="1266.14" y="1111.63"/>
        <vehicle id="2" eclass="HBEFA3/PC_G_EU4" CO2="7737.84" CO="114.59" HC="0.71" NOx="3.29" PMx="0.15" fuel="2467.99" electricity="0.00" noise="69.14" route="!2!var#1" type="DEFAULT_VEHTYPE" waiting="0.00" lane="177265332_0" pos="54.50" speed="12.47" angle="316.97" x="1885.75" y="1442.95"/>
    </timestep>
    <timestep time="10.00">
        <vehicle id="0" eclass="HBEFA3/PC_G_EU4" CO2="11504.21" CO="162.64" HC="1.02" NOx="4.90" PMx="0.25" fuel="3669.26" electricity="0.00" noise="72.65" route="!0!var#1" type="DEFAULT_VEHTYPE" waiting="0.00" lane="167466938#6_0" pos="44.07" speed="18.97" angle="129.69" x="1347.83" y="1165.07"/>
        <vehicle id="1" eclass="HBEFA3/PC_G_EU4" CO2="7643.30" CO="136.41" HC="0.80" NOx="3.31" PMx="0.16" fuel="2437.85" electricity="0.00" noise="69.78" route="!1!var#1" type="DEFAULT_VEHTYPE" waiting="0.00" lane="85206623#2_0" pos="16.28" speed="9.65" angle="194.80" x="1263.67" y="1102.30"/>
        <vehicle id="2" eclass="HBEFA3/PC_G_EU4" CO2="0.00" CO="0.00" HC="0.00" NOx="0.00" PMx="0.00" fuel="0.00" electricity="0.00" noise="58.95" route="!2!var#1" type="DEFAULT_VEHTYPE" waiting="0.00" lane="177265332_0" pos="65.18" speed="10.69" angle="316.97" x="1878.46" y="1450.76"/>
    </timestep>
    <timestep time="11.00">
        <vehicle id="0" eclass="HBEFA3/PC_G_EU4" CO2="14302.93" CO="218.28" HC="1.35" NOx="6.18" PMx="0.32" fuel="4561.90" electricity="0.00" noise="74.67" route="!0!var#1" type="DEFAULT_VEHTYPE" waiting="0.00" lane="167466938#6_0" pos="65.05" speed="20.97" angle="129.69" x="1363.97" y="1151.68"/>
        <vehicle id="1" eclass="HBEFA3/PC_G_EU4" CO2="8302.78" CO="132.34" HC="0.80" NOx="3.57" PMx="0.17" fuel="2648.18" electricity="0.00" noise="69.99" route="!1!var#1" type="DEFAULT_VEHTYPE" waiting="0.00" lane="85206623#2_0" pos="27.95" speed="11.67" angle="196.84" x="1260.43" y="1091.09"/>
        <vehicle id="2" eclass="HBEFA3/PC_G_EU4" CO2="0.00" CO="0.00" HC="0.00" NOx="0.00" PMx="0.00" fuel="0.00" electricity="0.00" noise="53.40" route="!2!var#1" type="DEFAULT_VEHTYPE" waiting="0.00" lane="177265332_0" pos="72.48" speed="7.29" angle="316.99" x="1873.48" y="1456.10"/>
    </timestep>
    <timestep time="12.00">
        <vehicle id="0" eclass="HBEFA3/PC_G_EU4" CO2="18791.88" CO="312.83" HC="1.89" NOx="8.24" PMx="0.45" fuel="5993.65" electricity="0.00" noise="77.53" route="!0!var#1" type="DEFAULT_VEHTYPE" waiting="0.00" lane="167466938#7_0" pos="0.69" speed="23.41" angle="129.68" x="1381.98" y="1136.73"/>
        <vehicle id="1" eclass="HBEFA3/PC_G_EU4" CO2="11991.23" CO="190.55" HC="1.16" NOx="5.25" PMx="0.26" fuel="3824.60" electricity="0.00" noise="73.62" route="!1!var#1" type="DEFAULT_VEHTYPE" waiting="0.00" lane=":9171613431_1_0" pos="4.56" speed="14.26" angle="195.39" x="1256.42" y="1077.41"/>
        <vehicle id="2" eclass="HBEFA3/PC_G_EU4" CO2="0.00" CO="0.00" HC="0.00" NOx="0.00" PMx="0.00" fuel="0.00" electricity="0.00" noise="51.47" route="!2!var#1" type="DEFAULT_VEHTYPE" waiting="0.00" lane=":1877197512_3_0" pos="1.68" speed="5.13" angle="311.28" x="1869.69" y="1459.44"/>
    </timestep>
    <timestep time="13.00">
        <vehicle id="0" eclass="HBEFA3/PC_G_EU4" CO2="17508.88" CO="291.80" HC="1.76" NOx="7.59" PMx="0.42" fuel="5584.44" electricity="0.00" noise="76.79" route="!0!var#1" type="DEFAULT_VEHTYPE" waiting="0.00" lane="167466938#7_0" pos="26.09" speed="25.40" angle="127.10" x="1401.65" y="1120.69"/>
        <vehicle id="1" eclass="HBEFA3/PC_G_EU4" CO2="11163.10" CO="163.56" HC="1.02" NOx="4.81" PMx="0.24" fuel="3560.46" electricity="0.00" noise="72.36" route="!1!var#1" type="DEFAULT_VEHTYPE" waiting="0.00" lane="85206623#3_0" pos="6.55" speed="16.28" angle="193.65" x="1252.32" y="1061.66"/>
        <vehicle id="2" eclass="HBEFA3/PC_G_EU4" CO2="3124.42" CO="86.81" HC="0.47" NOx="1.28" PMx="0.05" fuel="996.57" electricity="0.00" noise="61.43" route="!2!var#1" type="DEFAULT_VEHTYPE" waiting="0.00" lane=":1877197512_3_0" pos="7.46" speed="5.78" angle="237.60" x="1864.79" y="1456.78"/>
    </timestep>
    <timestep time="14.00">
        <vehicle id="0" eclass="HBEFA3/PC_G_EU4" CO2="0.00" CO="0.00" HC="0.00" NOx="0.00" PMx="0.00" fuel="0.00" electricity="0.00" noise="67.64" route="!0!var#1" type="DEFAULT_VEHTYPE" waiting="0.00" lane="167466938#7_0" pos="47.97" speed="21.88" angle="123.86" x="1419.82" y="1108.49"/>
        <vehicle id="1" eclass="HBEFA3/PC_G_EU4" CO2="9119.37" CO="116.67" HC="0.75" NOx="3.81" PMx="0.19" fuel="2908.62" electricity="0.00" noise="70.77" route="!1!var#1" type="DEFAULT_VEHTYPE" waiting="0.00" lane="85206623#3_0" pos="24.20" speed="17.65" angle="192.62" x="1248.31" y="1044.47"/>
        <vehicle id="2" eclass="HBEFA3/PC_G_EU4" CO2="2350.13" CO="69.06" HC="0.37" NOx="0.91" PMx="0.03" fuel="749.61" electricity="0.00" noise="59.47" route="!2!var#1" type="DEFAULT_VEHTYPE" waiting="0.00" lane="167452383#3_1" pos="5.39" speed="5.93" angle="222.22" x="1860.78" y="1452.42"/>
    </timestep>
    <timestep time="15.00">
        <vehicle id="0" eclass="HBEFA3/PC_G_EU4" CO2="0.00" CO="0.00" HC="0.00" NOx="0.00" PMx="0.00" fuel="0.00" electricity="0.00" noise="64.41" route="!0!var#1" type="DEFAULT_VEHTYPE" waiting="0.00" lane="167466938#7_0" pos="65.34" speed="17.38" angle="123.86" x="1434.26" y="1098.81"/>
        <vehicle id="1" eclass="HBEFA3/PC_G_EU4" CO2="16445.40" CO="262.78" HC="1.60" NOx="7.21" PMx="0.38" fuel="5245.24" electricity="0.00" noise="76.24" route="!1!var#1" type="DEFAULT_VEHTYPE" waiting="0.00" lane=":cluster_11700171699_4486274239_1_0" pos="13.60" speed="20.17" angle="193.08" x="1243.79" y="1024.82"/>
        <vehicle id="2" eclass="HBEFA3/PC_G_EU4" CO2="6095.02" CO="122.93" HC="0.70" NOx="2.63" PMx="0.12" fuel="1944.03" electricity="0.00" noise="67.87" route="!2!var#1" type="DEFAULT_VEHTYPE" waiting="0.00" lane="167452383#3_1" pos="13.26" speed="7.88" angle="222.22" x="1855.49" y="1446.59"/>
    </timestep>
    <timestep time="16.00">
        <vehicle id="0" eclass="HBEFA3/PC_G_EU4" CO2="0.00" CO="0.00" HC="0.00" NOx="0.00" PMx="0.00" fuel="0.00" electricity="0.00" noise="60.37" route="!0!var#1" type="DEFAULT_VEHTYPE" waiting="0.00" lane="167466938#7_0" pos="78.22" speed="12.88" angle="123.86" x="1444.95" y="1091.63"/>
        <vehicle id="1" eclass="HBEFA3/PC_G_EU4" CO2="6905.03" CO="66.00" HC="0.47" NOx="2.69" PMx="0.13" fuel="2202.37" electricity="0.00" noise="70.42" route="!1!var#1" type="DEFAULT_VEHTYPE" waiting="0.00" lane=":9171613425_1_0" pos="8.17" speed="20.83" angle="192.09" x="1239.30" y="1004.48"/>
        <vehicle id="2" eclass="HBEFA3/PC_G_EU4" CO2="9191.22" CO="160.74" HC="0.95" NOx="4.02" PMx="0.20" fuel="2931.55" electricity="0.00" noise="71.80" route="!2!var#1" type="DEFAULT_VEHTYPE" waiting="0.00" lane="167452383#3_1" pos="23.73" speed="10.47" angle="222.22" x="1848.45" y="1438.84"/>
    </timestep>
    <timestep time="17.00">
        <vehicle id="0" eclass="HBEFA3/PC_G_EU4" CO2="0.00" CO="0.00" HC="0.00" NOx="0.00" PMx="0.00" fuel="0.00" electricity="0.00" noise="54.79" route="!0!var#1" type="DEFAULT_VEHTYPE" waiting="0.00" lane="167466938#7_0" pos="86.60" speed="8.38" angle="123.86" x="1451.91" y="1086.97"/>
        <vehicle id="1" eclass="HBEFA3/PC_G_EU4" CO2="0.00" CO="0.00" HC="0.00" NOx="0.00" PMx="0.00" fuel="0.00" electricity="0.00" noise="68.24" route="!1!var#1" type="DEFAULT_VEHTYPE" waiting="0.00" lane="85206623#6_0" pos="14.12" speed="20.45" angle="190.23" x="1235.06" y="984.47"/>
        <vehicle id="2" eclass="HBEFA3/PC_G_EU4" CO2="7053.75" CO="103.90" HC="0.64" NOx="2.98" PMx="0.14" fuel="2249.81" electricity="0.00" noise="68.34" route="!2!var#1" type="DEFAULT_VEHTYPE" waiting="0.00" lane="167452383#4_1" pos="1.28" speed="12.02" angle="222.17" x="1840.39" y="1429.93"/>
    </timestep>
    <timestep time="18.00">
        <vehicle id="0" eclass="HBEFA3/PC_G_EU4" CO2="0.00" CO="0.00" HC="0.00" NOx="0.00" PMx="0.00" fuel="0.00" electricity="0.00" noise="48.55" route="!0!var#1" type="DEFAULT_VEHTYPE" waiting="0.00" lane="167466938#7_0" pos="91.34" speed="4.74" angle="129.53" x="1455.54" y="1083.94"/>
        <vehicle id="1" eclass="HBEFA3/PC_G_EU4" CO2="0.00" CO="0.00" HC="0.00" NOx="0.00" PMx="0.00" fuel="0.00" electricity="0.00" noise="67.15" route="!1!var#1" type="DEFAULT_VEHTYPE" waiting="0.00" lane="85206623#6_0" pos="33.72" speed="19.60" angle="189.05" x="1231.98" y="965.11"/>
        <vehicle id="2" eclass="HBEFA3/PC_G_EU4" CO2="8513.03" CO="122.00" HC="0.76" NOx="3.62" PMx="0.17" fuel="2715.23" electricity="0.00" noise="69.93" route="!2!var#1" type="DEFAULT_VEHTYPE" waiting="0.00" lane="167452383#4_1" pos="15.03" speed="13.74" angle="200.05" x="1835.53" y="1417.05"/>
    </timestep>
    <timestep time="19.00">
        <vehicle id="0" eclass="HBEFA3/PC_G_EU4" CO2="0.00" CO="0.00" HC="0.00" NOx="0.00" PMx="0.00" fuel="0.00" electricity="0.00" noise="40.57" route="!0!var#1" type="DEFAULT_VEHTYPE" waiting="0.00" lane="167466938#7_0" pos="92.39" speed="1.05" angle="131.29" x="1456.32" y="1083.23"/>
        <vehicle id="1" eclass="HBEFA3/PC_G_EU4" CO2="3901.24" CO="4.93" HC="0.12" NOx="1.30" PMx="0.05" fuel="1244.32" electricity="0.00" noise="68.68" route="!1!var#1" type="DEFAULT_VEHTYPE" waiting="0.00" lane="85206623#6_0" pos="53.48" speed="19.76" angle="189.05" x="1228.87" y="945.61"/>
        <vehicle id="2" eclass="HBEFA3/PC_G_EU4" CO2="8450.60" CO="112.35" HC="0.72" NOx="3.55" PMx="0.17" fuel="2695.32" electricity="0.00" noise="69.91" route="!2!var#1" type="DEFAULT_VEHTYPE" waiting="0.00" lane="167452383#4_1" pos="30.28" speed="15.25" angle="200.05" x="1830.28" y="1402.67"/>
    </timestep>
    <timestep time="20.00">
        <vehicle id="0" eclass="HBEFA3/PC_G_EU4" CO2="2611.66" CO="163.92" HC="0.81" NOx="1.20" PMx="0.07" fuel="833.05" electricity="0.00" noise="51.47" route="!0!var#1" type="DEFAULT_VEHTYPE" waiting="1.00" lane="167466938#7_0" pos="92.43" speed="0.03" angle="131.34" x="1456.34" y="1083.21"/>
        <vehicle id="1" eclass="HBEFA3/PC_G_EU4" CO2="0.00" CO="0.00" HC="0.00" NOx="0.00" PMx="0.00" fuel="0.00" electricity="0.00" noise="66.12" route="!1!var#1" type="DEFAULT_VEHTYPE" waiting="0.00" lane="85206623#6_0" pos="72.03" speed="18.55" angle="188.85" x="1225.97" y="927.29"/>
        <vehicle id="2" eclass="HBEFA3/PC_G_EU4" CO2="14851.69" CO="234.16" HC="1.43" NOx="6.51" PMx="0.34" fuel="4736.93" electricity="0.00" noise="75.38" route="!2!var#1" type="DEFAULT_VEHTYPE" waiting="0.00" lane="167452383#4_1" pos="48.11" speed="17.84" angle="207.14" x="1823.60" y="1386.15"/>
    </timestep>
    <timestep time="21.00">
        <vehicle id="0" eclass="HBEFA3/PC_G_EU4" CO2="2621.98" CO="164.36" HC="0.81" NOx="1.20" PMx="0.07" fuel="836.35" electricity="0.00" noise="55.89" route="!0!var#1" type="DEFAULT_VEHTYPE" waiting="2.00" lane="167466938#7_0" pos="92.45" speed="0.02" angle="131.38" x="1456.36" y="1083.19"/>
        <vehicle id="1" eclass="HBEFA3/PC_G_EU4" CO2="0.00" CO="0.00" HC="0.00" NOx="0.00" PMx="0.00" fuel="0.00" electricity="0.00" noise="62.92" route="!1!var#1" type="DEFAULT_VEHTYPE" waiting="0.00" lane="85206623#6_0" pos="87.46" speed="15.43" angle="188.55" x="1223.68" y="912.03"/>
        <vehicle id="2" eclass="HBEFA3/PC_G_EU4" CO2="15853.58" CO="250.55" HC="1.53" NOx="6.93" PMx="0.36" fuel="5056.48" electricity="0.00" noise="75.79" route="!2!var#1" type="DEFAULT_VEHTYPE" waiting="0.00" lane="167452383#4_1" pos="68.35" speed="20.23" angle="218.75" x="1810.89" y="1370.31"/>
    </timestep>
    <timestep time="22.00">
        <vehicle id="0" eclass="HBEFA3/PC_G_EU4" CO2="2624.34" CO="164.72" HC="0.81" NOx="1.20" PMx="0.07" fuel="837.10" electricity="0.00" noise="55.86" route="!0!var#1" type="DEFAULT_VEHTYPE" waiting="3.00" lane="167466938#7_0" pos="92.45" speed="0.00" angle="131.38" x="1456.36" y="1083.19"/>
        <vehicle id="1" eclass="HBEFA3/PC_G_EU4" CO2="0.00" CO="0.00" HC="0.00" NOx="0.00" PMx="0.00" fuel="0.00" electricity="0.00" noise="58.20" route="!1!var#1" type="DEFAULT_VEHTYPE" waiting="0.00" lane="85206623#6_0" pos="98.38" speed="10.93" angle="188.55" x="1222.05" y="901.22"/>
        <vehicle id="2" eclass="HBEFA3/PC_G_EU4" CO2="17127.17" CO="277.20" HC="1.69" NOx="7.47" PMx="0.40" fuel="5462.69" electricity="0.00" noise="76.51" route="!2!var#1" type="DEFAULT_VEHTYPE" waiting="0.00" lane="167452383#4_1" pos="90.87" speed="22.52" angle="199.18" x="1798.37" y="1352.25"/>
    </timestep>
    <timestep time="23.00">
        <vehicle id="0" eclass="HBEFA3/PC_G_EU4" CO2="2624.68" CO="164.77" HC="0.81" NOx="1.20" PMx="0.07" fuel="837.21" electricity="0.00" noise="55.93" route="!0!var#1" type="DEFAULT_VEHTYPE" waiting="4.00" lane="167466938#7_0" pos="92.45" speed="0.00" angle="131.38" x="1456.36" y="1083.19"/>
        <vehicle id="1" eclass="HBEFA3/PC_G_EU4" CO2="0.00" CO="0.00" HC="0.00" NOx="0.00" PMx="0.00" fuel="0.00" electricity="0.00" noise="51.52" route="!1!var#1" type="DEFAULT_VEHTYPE" waiting="0.00" lane="85206623#6_0" pos="104.81" speed="6.43" angle="189.24" x="1221.04" y="894.88"/>
        <vehicle id="2" eclass="HBEFA3/PC_G_EU4" CO2="19995.00" CO="341.46" HC="2.05" NOx="8.77" PMx="0.48" fuel="6377.38" electricity="0.00" noise="78.19" route="!2!var#1" type="DEFAULT_VEHTYPE" waiting="0.00" lane="167452383#4_1" pos="115.81" speed="24.94" angle="170.65" x="1802.43" y="1327.54"/>
    </timestep>
    <timestep time="24.00">
        <vehicle id="0" eclass="HBEFA3/PC_G_EU4" CO2="2624.72" CO="164.78" HC="0.81" NOx="1.20" PMx="0.07" fuel="837.22" electricity="0.00" noise="55.94" route="!0!var#1" type="DEFAULT_VEHTYPE" waiting="5.00" lane="167466938#7_0" pos="92.45" speed="0.00" angle="131.38" x="1456.36" y="1083.19"/>
        <vehicle id="1" eclass="HBEFA3/PC_G_EU4" CO2="2771.24" CO="66.86" HC="0.37" NOx="1.09" PMx="0.04" fuel="883.92" electricity="0.00" noise="60.91" route="!1!var#1" type="DEFAULT_VEHTYPE" waiting="0.00" lane=":cluster_11700454284_1788595511_1_0" pos="4.58" speed="6.80" angle="117.97" x="1224.86" y="890.91"/>
        <vehicle id="2" eclass="HBEFA3/PC_G_EU4" CO2="19202.03" CO="333.34" HC="2.00" NOx="8.35" PMx="0.47" fuel="6124.47" electricity="0.00" noise="77.78" route="!2!var#1" type="DEFAULT_VEHTYPE" waiting="0.00" lane="167452383#4_1" pos="142.80" speed="26.98" angle="227.60" x="1790.73" y="1306.40"/>
    </timestep>
    <timestep time="25.00">
        <vehicle id="0" eclass="HBEFA3/PC_G_EU4" CO2="2624.72" CO="164.78" HC="0.81" NOx="1.20" PMx="0.07" fuel="837.22" electricity="0.00" noise="55.94" route="!0!var#1" type="DEFAULT_VEHTYPE" waiting="6.00" lane="167466938#7_0" pos="92.45" speed="0.00" angle="131.38" x="1456.36" y="1083.19"/>
        <vehicle id="1" eclass="HBEFA3/PC_G_EU4" CO2="0.00" CO="0.00" HC="0.00" NOx="0.00" PMx="0.00" fuel="0.00" electricity="0.00" noise="57.94" route="!1!var#1" type="DEFAULT_VEHTYPE" waiting="0.00" lane="1258602394#2_0" pos="0.85" speed="6.44" angle="105.54" x="1231.06" y="889.21"/>
        <vehicle id="2" eclass="HBEFA3/PC_G_EU4" CO2="8168.40" CO="108.44" HC="0.70" NOx="3.14" PMx="0.18" fuel="2605.33" electricity="0.00" noise="73.43" route="!2!var#1" type="DEFAULT_VEHTYPE" waiting="0.00" lane="167452383#4_1" pos="170.23" speed="27.43" angle="227.60" x="1770.40" y="1287.83"/>
    </timestep>
    <timestep time="26.00">
        <vehicle id="0" eclass="HBEFA3/PC_G_EU4" CO2="2624.72" CO="164.78" HC="0.81" NOx="1.20" PMx="0.07" fuel="837.22" electricity="0.00" noise="55.94" route="!0!var#1" type="DEFAULT_VEHTYPE" waiting="7.00" lane="167466938#7_0" pos="92.45" speed="0.00" angle="131.38" x="1456.36" y="1083.19"/>
        <vehicle id="1" eclass="HBEFA3/PC_G_EU4" CO2="6608.49" CO="126.95" HC="0.74" NOx="2.86" PMx="0.13" fuel="2107.80" electricity="0.00" noise="68.56" route="!1!var#1" type="DEFAULT_VEHTYPE" waiting="0.00" lane="1258602394#2_0" pos="9.33" speed="8.48" angle="110.01" x="1239.03" y="886.31"/>
        <vehicle id="2" eclass="HBEFA3/PC_G_EU4" CO2="5515.96" CO="54.22" HC="0.39" NOx="1.88" PMx="0.11" fuel="1759.34" electricity="0.00" noise="72.79" route="!2!var#1" type="DEFAULT_VEHTYPE" waiting="0.00" lane="167452383#4_1" pos="197.73" speed="27.50" angle="246.77" x="1745.75" y="1275.81"/>
    </timestep>
    <timestep time="27.00">
        <vehicle id="0" eclass="HBEFA3/PC_G_EU4" CO2="2624.72" CO="164.78" HC="0.81" NOx="1.20" PMx="0.07" fuel="837.22" electricity="0.00" noise="55.94" route="!0!var#1" type="DEFAULT_VEHTYPE" waiting="8.00" lane="167466938#7_0" pos="92.45" speed="0.00" angle="131.38" x="1456.36" y="1083.19"/>
        <vehicle id="1" eclass="HBEFA3/PC_G_EU4" CO2="6446.00" CO="107.35" HC="0.64" NOx="2.74" PMx="0.13" fuel="2055.97" electricity="0.00" noise="67.71" route="!1!var#1" type="DEFAULT_VEHTYPE" waiting="0.00" lane="1258602394#2_0" pos="19.45" speed="10.12" angle="110.01" x="1248.54" y="882.84"/>
        <vehicle id="2" eclass="HBEFA3/PC_G_EU4" CO2="0.00" CO="0.00" HC="0.00" NOx="0.00" PMx="0.00" fuel="0.00" electricity="0.00" noise="69.57" route="!2!var#1" type="DEFAULT_VEHTYPE" waiting="0.00" lane="167452383#4_1" pos="222.66" speed="24.93" angle="259.60" x="1722.21" y="1267.71"/>
    </timestep>
    <timestep time="28.00">
        <vehicle id="0" eclass="HBEFA3/PC_G_EU4" CO2="2624.72" CO="164.78" HC="0.81" NOx="1.20" PMx="0.07" fuel="837.22" electricity="0.00" noise="55.94" route="!0!var#1" type="DEFAULT_VEHTYPE" waiting="9.00" lane="167466938#7_0" pos="92.45" speed="0.00" angle="131.38" x="1456.36" y="1083.19"/>
        <vehicle id="1" eclass="HBEFA3/PC_G_EU4" CO2="9083.94" CO="143.79" HC="0.87" NOx="3.93" PMx="0.19" fuel="2897.33" electricity="0.00" noise="70.84" route="!1!var#1" type="DEFAULT_VEHTYPE" waiting="0.00" lane="1258602394#2_0" pos="31.72" speed="12.27" angle="110.01" x="1260.07" y="878.65"/>
        <vehicle id="2" eclass="HBEFA3/PC_G_EU4" CO2="0.00" CO="0.00" HC="0.00" NOx="0.00" PMx="0.00" fuel="0.00" electricity="0.00" noise="66.83" route="!2!var#1" type="DEFAULT_VEHTYPE" waiting="0.00" lane="167452383#4_1" pos="243.36" speed="20.70" angle="259.60" x="1701.78" y="1263.96"/>
    </timestep>
    <timestep time="29.00">
        <vehicle id="0" eclass="HBEFA3/PC_G_EU4" CO2="2624.72" CO="164.78" HC="0.81" NOx="1.20" PMx="0.07" fuel="837.22" electricity="0.00" noise="55.94" route="!0!var#1" type="DEFAULT_VEHTYPE" waiting="10.00" lane="167466938#7_0" pos="92.45" speed="0.00" angle="131.38" x="1456.36" y="1083.19"/>
        <vehicle id="1" eclass="HBEFA3/PC_G_EU4" CO2="11502.27" CO="178.27" HC="1.09" NOx="5.01" PMx="0.25" fuel="3668.64" electricity="0.00" noise="72.97" route="!1!var#1" type="DEFAULT_VEHTYPE" waiting="0.00" lane="1258602394#2_0" pos="46.37" speed="14.65" angle="110.01" x="1273.83" y="873.63"/>
        <vehicle id="2" eclass="HBEFA3/PC_G_EU4" CO2="0.00" CO="0.00" HC="0.00" NOx="0.00" PMx="0.00" fuel="0.00" electricity="0.00" noise="63.45" route="!2!var#1" type="DEFAULT_VEHTYPE" waiting="0.00" lane="167452383#4_1" pos="259.56" speed="16.20" angle="259.60" x="1685.79" y="1261.03"/>
    </timestep>
    <timestep time="30.00">
        <vehicle id="0" eclass="HBEFA3/PC_G_EU4" CO2="3663.08" CO="148.93" HC="0.76" NOx="1.63" PMx="0.08" fuel="1168.39" electricity="0.00" noise="66.58" route="!0!var#1" type="DEFAULT_VEHTYPE" waiting="0.00" lane=":cluster_1779242081_1779242093_1779242094_1779242098_#5more_32_1" pos="1.22" speed="2.22" angle="132.92" x="1457.97" y="1081.65"/>
        <vehicle id="1" eclass="HBEFA3/PC_G_EU4" CO2="0.00" CO="0.00" HC="0.00" NOx="0.00" PMx="0.00" fuel="0.00" electricity="0.00" noise="60.79" route="!1!var#1" type="DEFAULT_VEHTYPE" waiting="0.00" lane="1258602394#2_0" pos="59.04" speed="12.67" angle="110.01" x="1285.74" y="869.30"/>
        <vehicle id="2" eclass="HBEFA3/PC_G_EU4" CO2="0.00" CO="0.00" HC="0.00" NOx="0.00" PMx="0.00" fuel="0.00" electricity="0.00" noise="60.01" route="!2!var#1" type="DEFAULT_VEHTYPE" waiting="0.00" lane="167452383#4_1" pos="272.03" speed="12.47" angle="259.60" x="1673.47" y="1258.77"/>
    </timestep>
    <timestep time="31.00">
        <vehicle id="0" eclass="HBEFA3/PC_G_EU4" CO2="3585.71" CO="125.94" HC="0.66" NOx="1.56" PMx="0.07" fuel="1143.71" electricity="0.00" noise="63.58" route="!0!var#1" type="DEFAULT_VEHTYPE" waiting="0.00" lane=":cluster_1779242081_1779242093_1779242094_1779242098_#5more_32_1" pos="4.85" speed="3.63" angle="135.04" x="1460.54" y="1079.07"/>
        <vehicle id="1" eclass="HBEFA3/PC_G_EU4" CO2="0.00" CO="0.00" HC="0.00" NOx="0.00" PMx="0.00" fuel="0.00" electricity="0.00" noise="56.27" route="!1!var#1" type="DEFAULT_VEHTYPE" waiting="0.00" lane="1258602394#2_0" pos="68.30" speed="9.26" angle="110.01" x="1294.44" y="866.13"/>