<?xml version="1.0" encoding="UTF-8"?>

<!-- generated on 2024-05-03 00:19:21 by Eclipse SUMO sumo Version 1.19.0
<configuration xmlns:xsi="http://www.w3.org/2001/XMLSchema-instance" xsi:noNamespaceSchemaLocation="http://sumo.dlr.de/xsd/sumoConfiguration.xsd">

    <input>
        <net-file value="ElectricBRTS.net.xml"/>
        <route-files value="BRTS.route.xml"/>
    </input>

    <output>
        <tripinfo-output value="Case5_brts_tripinfo.xml"/>
    </output>

    <time>
        <begin value="0"/>
        <end value="1000"/>
    </time>

    <processing>
        <ignore-route-errors value="True"/>
    </processing>

</configuration>
-->

<tripinfos xmlns:xsi="http://www.w3.org/2001/XMLSchema-instance" xsi:noNamespaceSchemaLocation="http://sumo.dlr.de/xsd/tripinfo_file.xsd">
    <tripinfo id="BUS1" depart="50.00" departLane="166458245#0_0" departPos="12.10" departSpeed="0.00" departDelay="0.00" arrival="345.00" arrivalLane="166479007#0_1" arrivalPos="27.35" arrivalSpeed="9.31" duration="295.00" routeLength="2668.16" waitingTime="56.00" waitingCount="3" stopTime="0.00" timeLoss="196.88" rerouteNo="0" devices="tripinfo_BUS1" vType="BUS" speedFactor="1.06" vaporized=""/>
    <tripinfo id="BUS2" depart="100.00" departLane="166458245#0_0" departPos="12.10" departSpeed="0.00" departDelay="0.00" arrival="482.00" arrivalLane="166479007#0_1" arrivalPos="27.35" arrivalSpeed="8.35" duration="382.00" routeLength="2668.16" waitingTime="136.00" waitingCount="4" stopTime="0.00" timeLoss="271.55" rerouteNo="0" devices="tripinfo_BUS2" vType="BUS" speedFactor="0.94" vaporized=""/>
    <tripinfo id="BUS3" depart="180.00" departLane="166458245#0_0" departPos="12.10" departSpeed="0.00" departDelay="0.00" arrival="616.00" arrivalLane="166479007#0_1" arrivalPos="27.35" arrivalSpeed="9.46" duration="436.00" routeLength="2668.16" waitingTime="184.00" waitingCount="4" stopTime="0.00" timeLoss="333.53" rerouteNo="0" devices="tripinfo_BUS3" vType="BUS" speedFactor="1.01" vaporized=""/>
    <tripinfo id="BUS5" depart="400.00" departLane="166458245#0_0" departPos="12.10" departSpeed="0.00" departDelay="0.00" arrival="753.00" arrivalLane="166479007#0_1" arrivalPos="27.35" arrivalSpeed="9.63" duration="353.00" routeLength="2668.16" waitingTime="122.00" waitingCount="3" stopTime="0.00" timeLoss="252.87" rerouteNo="0" devices="tripinfo_BUS5" vType="BUS" speedFactor="1.03" vaporized=""/>
    <tripinfo id="BUS4" depart="290.00" departLane="166458245#0_0" departPos="12.10" departSpeed="0.00" departDelay="0.00" arrival="889.00" arrivalLane="166479007#0_1" arrivalPos="27.35" arrivalSpeed="9.22" duration="599.00" routeLength="2668.16" waitingTime="328.00" waitingCount="6" stopTime="0.00" timeLoss="502.49" rerouteNo="0" devices="tripinfo_BUS4" vType="BUS" speedFactor="1.08" vaporized=""/>
</tripinfos>
