<?xml version="1.0" encoding="UTF-8"?>

<!-- generated on 2024-05-03 01:04:40 by Eclipse SUMO sumo Version 1.19.0
<configuration xmlns:xsi="http://www.w3.org/2001/XMLSchema-instance" xsi:noNamespaceSchemaLocation="http://sumo.dlr.de/xsd/sumoConfiguration.xsd">

    <input>
        <net-file value="Car.net.xml"/>
        <route-files value="AMTS.rou.xml"/>
    </input>

    <output>
        <emission-output value="Case5_amts_emissions.xml"/>
    </output>

    <time>
        <begin value="0"/>
        <end value="1000"/>
    </time>

    <processing>
        <ignore-route-errors value="True"/>
        <max-num-vehicles value="3"/>
    </processing>

</configuration>
-->

<emission-export xmlns:xsi="http://www.w3.org/2001/XMLSchema-instance" xsi:noNamespaceSchemaLocation="http://sumo.dlr.de/xsd/emission_file.xsd">
    <timestep time="0.00"/>
    <timestep time="1.00"/>
    <timestep time="2.00"/>
    <timestep time="3.00"/>
    <timestep time="4.00"/>
    <timestep time="5.00"/>
    <timestep time="6.00"/>
    <timestep time="7.00"/>
    <timestep time="8.00"/>
    <timestep time="9.00"/>
    <timestep time="10.00">
        <vehicle id="amts1" eclass="HBEFA3/PC_G_EU4" CO2="2624.72" CO="164.78" HC="0.81" NOx="1.20" PMx="0.07" fuel="837.22" electricity="0.00" noise="55.94" route="car_route" type="BUS1" waiting="0.00" lane="166458245#0_0" pos="12.10" speed="0.00" angle="226.74" x="2146.22" y="3060.00"/>
    </timestep>
    <timestep time="11.00">
        <vehicle id="amts1" eclass="HBEFA3/PC_G_EU4" CO2="2634.67" CO="155.38" HC="0.77" NOx="1.19" PMx="0.06" fuel="840.39" electricity="0.00" noise="58.57" route="car_route" type="BUS1" waiting="0.00" lane="166458245#0_0" pos="12.65" speed="0.55" angle="226.74" x="2145.82" y="3059.62"/>
    </timestep>
    <timestep time="12.00">
        <vehicle id="amts1" eclass="HBEFA3/PC_G_EU4" CO2="2682.98" CO="145.39" HC="0.72" NOx="1.20" PMx="0.06" fuel="855.80" electricity="0.00" noise="59.25" route="car_route" type="BUS1" waiting="0.00" lane="166458245#0_0" pos="13.85" speed="1.20" angle="226.74" x="2144.95" y="3058.80"/>
    </timestep>
    <timestep time="13.00">
        <vehicle id="amts1" eclass="HBEFA3/PC_G_EU4" CO2="2620.54" CO="136.87" HC="0.68" NOx="1.16" PMx="0.06" fuel="835.88" electricity="0.00" noise="58.51" route="car_route" type="BUS1" waiting="0.00" lane="166458245#0_0" pos="15.49" speed="1.64" angle="226.74" x="2143.75" y="3057.68"/>
    </timestep>
    <timestep time="14.00">
        <vehicle id="amts1" eclass="HBEFA3/PC_G_EU4" CO2="2796.21" CO="129.16" HC="0.65" NOx="1.22" PMx="0.06" fuel="891.91" electricity="0.00" noise="59.99" route="car_route" type="BUS1" waiting="0.00" lane="166458245#0_0" pos="17.83" speed="2.35" angle="226.74" x="2142.04" y="3056.07"/>
    </timestep>
    <timestep time="15.00">
        <vehicle id="amts1" eclass="HBEFA3/PC_G_EU4" CO2="2647.10" CO="119.18" HC="0.60" NOx="1.14" PMx="0.05" fuel="844.35" electricity="0.00" noise="59.04" route="car_route" type="BUS1" waiting="0.00" lane="166458245#0_0" pos="20.62" speed="2.79" angle="226.74" x="2140.00" y="3054.15"/>
    </timestep>
    <timestep time="16.00">
        <vehicle id="amts1" eclass="HBEFA3/PC_G_EU4" CO2="2823.76" CO="113.48" HC="0.58" NOx="1.20" PMx="0.05" fuel="900.69" electricity="0.00" noise="60.08" route="car_route" type="BUS1" waiting="0.00" lane="166458245#0_0" pos="24.03" speed="3.41" angle="226.68" x="2137.53" y="3051.80"/>
    </timestep>
    <timestep time="17.00">
        <vehicle id="amts1" eclass="HBEFA3/PC_G_EU4" CO2="3052.70" CO="107.09" HC="0.56" NOx="1.29" PMx="0.06" fuel="973.70" electricity="0.00" noise="61.07" route="car_route" type="BUS1" waiting="0.00" lane="166458245#0_0" pos="28.20" speed="4.17" angle="224.67" x="2134.78" y="3048.65"/>
    </timestep>
    <timestep time="18.00">
        <vehicle id="amts1" eclass="HBEFA3/PC_G_EU4" CO2="2986.62" CO="96.80" HC="0.51" NOx="1.24" PMx="0.05" fuel="952.63" electricity="0.00" noise="60.86" route="car_route" type="BUS1" waiting="0.00" lane="166458245#0_0" pos="33.02" speed="4.82" angle="222.35" x="2131.62" y="3045.00"/>
    </timestep>
    <timestep time="19.00">
        <vehicle id="amts1" eclass="HBEFA3/PC_G_EU4" CO2="2811.47" CO="86.82" HC="0.46" NOx="1.15" PMx="0.05" fuel="896.76" electricity="0.00" noise="60.42" route="car_route" type="BUS1" waiting="0.00" lane="166458245#0_0" pos="38.31" speed="5.29" angle="220.97" x="2128.15" y="3041.00"/>
    </timestep>
    <timestep time="20.00">
        <vehicle id="amts1" eclass="HBEFA3/PC_G_EU4" CO2="3388.65" CO="88.42" HC="0.48" NOx="1.40" PMx="0.06" fuel="1080.85" electricity="0.00" noise="62.17" route="car_route" type="BUS1" waiting="0.00" lane="166458245#0_0" pos="44.39" speed="6.09" angle="220.97" x="2124.15" y="3036.40"/>
    </timestep>
    <timestep time="21.00">
        <vehicle id="amts1" eclass="HBEFA3/PC_G_EU4" CO2="3164.39" CO="76.33" HC="0.42" NOx="1.28" PMx="0.05" fuel="1009.32" electricity="0.00" noise="61.74" route="car_route" type="BUS1" waiting="0.00" lane="166458245#0_0" pos="51.08" speed="6.69" angle="220.97" x="2119.76" y="3031.34"/>
    </timestep>
    <timestep time="22.00">
        <vehicle id="amts1" eclass="HBEFA3/PC_G_EU4" CO2="3256.06" CO="71.00" HC="0.40" NOx="1.31" PMx="0.05" fuel="1038.55" electricity="0.00" noise="62.11" route="car_route" type="BUS1" waiting="0.00" lane="166458245#0_0" pos="58.38" speed="7.30" angle="220.53" x="2115.03" y="3025.76"/>
    </timestep>
    <timestep time="23.00">
        <vehicle id="amts1" eclass="HBEFA3/PC_G_EU4" CO2="3258.59" CO="64.59" HC="0.37" NOx="1.29" PMx="0.05" fuel="1039.36" electricity="0.00" noise="62.29" route="car_route" type="BUS1" waiting="0.00" lane="166458245#0_0" pos="66.25" speed="7.87" angle="218.33" x="2110.22" y="3019.51"/>
    </timestep>
    <timestep time="24.00">
        <vehicle id="amts1" eclass="HBEFA3/PC_G_EU4" CO2="3835.66" CO="68.13" HC="0.40" NOx="1.54" PMx="0.06" fuel="1223.41" electricity="0.00" noise="63.52" route="car_route" type="BUS1" waiting="0.00" lane="166458245#0_0" pos="74.90" speed="8.65" angle="217.62" x="2104.93" y="3012.65"/>
    </timestep>
    <timestep time="25.00">
        <vehicle id="amts1" eclass="HBEFA3/PC_G_EU4" CO2="3712.11" CO="58.81" HC="0.35" NOx="1.47" PMx="0.06" fuel="1184.00" electricity="0.00" noise="63.52" route="car_route" type="BUS1" waiting="0.00" lane="166458245#0_0" pos="84.21" speed="9.31" angle="217.62" x="2099.24" y="3005.26"/>
    </timestep>
    <timestep time="26.00">
        <vehicle id="amts1" eclass="HBEFA3/PC_G_EU4" CO2="3257.87" CO="45.07" HC="0.28" NOx="1.24" PMx="0.04" fuel="1039.12" electricity="0.00" noise="63.05" route="car_route" type="BUS1" waiting="0.00" lane="166458245#0_0" pos="93.97" speed="9.76" angle="217.62" x="2093.27" y="2997.51"/>
    </timestep>
    <timestep time="27.00">
        <vehicle id="amts1" eclass="HBEFA3/PC_G_EU4" CO2="3802.02" CO="50.53" HC="0.32" NOx="1.48" PMx="0.06" fuel="1212.68" electricity="0.00" noise="64.02" route="car_route" type="BUS1" waiting="0.00" lane="166458245#0_0" pos="104.36" speed="10.38" angle="217.35" x="2086.96" y="2989.24"/>
    </timestep>
    <timestep time="28.00">
        <vehicle id="amts1" eclass="HBEFA3/PC_G_EU4" CO2="3652.51" CO="42.80" HC="0.28" NOx="1.40" PMx="0.05" fuel="1164.99" electricity="0.00" noise="64.05" route="car_route" type="BUS1" waiting="0.00" lane="166458245#0_0" pos="115.27" speed="10.91" angle="217.04" x="2080.38" y="2980.51"/>
    </timestep>
    <timestep time="29.00">
        <vehicle id="amts1" eclass="HBEFA3/PC_G_EU4" CO2="3756.48" CO="40.50" HC="0.27" NOx="1.43" PMx="0.05" fuel="1198.15" electricity="0.00" noise="64.40" route="car_route" type="BUS1" waiting="0.00" lane="166458245#0_0" pos="126.72" speed="11.45" angle="217.04" x="2073.47" y="2971.36"/>
    </timestep>
    <timestep time="30.00">
        <vehicle id="amts1" eclass="HBEFA3/PC_G_EU4" CO2="4395.82" CO="48.25" HC="0.32" NOx="1.72" PMx="0.07" fuel="1402.07" electricity="0.00" noise="65.35" route="car_route" type="BUS1" waiting="0.00" lane="166458245#0_0" pos="138.85" speed="12.14" angle="217.66" x="2066.04" y="2961.73"/>
    </timestep>
    <timestep time="31.00">
        <vehicle id="amts1" eclass="HBEFA3/PC_G_EU4" CO2="4757.38" CO="50.32" HC="0.34" NOx="1.87" PMx="0.08" fuel="1517.38" electricity="0.00" noise="65.97" route="car_route" type="BUS1" waiting="0.00" lane="166458245#0_0" pos="151.74" speed="12.88" angle="217.72" x="2058.14" y="2951.52"/>
    </timestep>
    <timestep time="32.00">
        <vehicle id="amts1" eclass="HBEFA3/PC_G_EU4" CO2="4910.38" CO="48.63" HC="0.34" NOx="1.92" PMx="0.08" fuel="1566.18" electricity="0.00" noise="66.38" route="car_route" type="BUS1" waiting="0.00" lane="166458245#0_0" pos="165.35" speed="13.61" angle="217.72" x="2049.80" y="2940.73"/>
    </timestep>
    <timestep time="33.00">
        <vehicle id="amts1" eclass="HBEFA3/PC_G_EU4" CO2="4799.27" CO="42.41" HC="0.31" NOx="1.86" PMx="0.08" fuel="1530.74" electricity="0.00" noise="66.54" route="car_route" type="BUS1" waiting="0.00" lane="166458245#0_0" pos="179.62" speed="14.27" angle="214.71" x="2041.58" y="2929.04"/>
    </timestep>
    <timestep time="34.00">
        <vehicle id="amts1" eclass="HBEFA3/PC_G_EU4" CO2="4451.73" CO="32.35" HC="0.25" NOx="1.68" PMx="0.07" fuel="1419.89" electricity="0.00" noise="66.50" route="car_route" type="BUS1" waiting="0.00" lane="166458245#0_0" pos="194.41" speed="14.79" angle="214.79" x="2033.13" y="2916.87"/>
    </timestep>
    <timestep time="35.00">
        <vehicle id="amts1" eclass="HBEFA3/PC_G_EU4" CO2="4759.59" CO="35.80" HC="0.28" NOx="1.81" PMx="0.07" fuel="1518.08" electricity="0.00" noise="66.98" route="car_route" type="BUS1" waiting="0.00" lane="166458245#0_0" pos="209.77" speed="15.36" angle="214.30" x="2024.44" y="2904.17"/>
    </timestep>
    <timestep time="36.00">
        <vehicle id="amts1" eclass="HBEFA3/PC_G_EU4" CO2="5507.98" CO="48.01" HC="0.35" NOx="2.15" PMx="0.09" fuel="1756.78" electricity="0.00" noise="67.78" route="car_route" type="BUS1" waiting="0.00" lane="166458245#0_0" pos="225.84" speed="16.06" angle="211.70" x="2015.98" y="2890.48"/>
    </timestep>
    <timestep time="37.00">
        <vehicle id="amts1" eclass="HBEFA3/PC_G_EU4" CO2="4644.69" CO="28.34" HC="0.24" NOx="1.73" PMx="0.07" fuel="1481.44" electricity="0.00" noise="67.43" route="car_route" type="BUS1" waiting="0.00" lane="166458245#1_0" pos="6.07" speed="16.53" angle="211.70" x="2007.28" y="2876.38"/>
    </timestep>
    <timestep time="38.00">
        <vehicle id="amts1" eclass="HBEFA3/PC_G_EU4" CO2="5041.39" CO="34.59" HC="0.28" NOx="1.90" PMx="0.08" fuel="1607.96" electricity="0.00" noise="67.91" route="car_route" type="BUS1" waiting="0.00" lane="166458245#1_0" pos="23.13" speed="17.06" angle="211.58" x="1998.29" y="2861.79"/>
    </timestep>
    <timestep time="39.00">
        <vehicle id="amts1" eclass="HBEFA3/PC_G_EU4" CO2="6415.93" CO="60.48" HC="0.43" NOx="2.53" PMx="0.12" fuel="2046.37" electricity="0.00" noise="69.03" route="car_route" type="BUS1" waiting="0.00" lane="166458245#1_0" pos="40.97" speed="17.84" angle="211.57" x="1988.91" y="2846.53"/>
    </timestep>
    <timestep time="40.00">
        <vehicle id="amts1" eclass="HBEFA3/PC_G_EU4" CO2="5901.16" CO="48.32" HC="0.36" NOx="2.27" PMx="0.10" fuel="1882.18" electricity="0.00" noise="68.98" route="car_route" type="BUS1" waiting="0.00" lane="166458245#1_0" pos="59.43" speed="18.46" angle="211.22" x="1979.30" y="2830.68"/>
    </timestep>
    <timestep time="41.00">
        <vehicle id="amts1" eclass="HBEFA3/PC_G_EU4" CO2="0.00" CO="0.00" HC="0.00" NOx="0.00" PMx="0.00" fuel="0.00" electricity="0.00" noise="64.61" route="car_route" type="BUS1" waiting="0.00" lane="166458245#1_0" pos="76.28" speed="16.85" angle="211.22" x="1970.52" y="2816.20"/>
    </timestep>
    <timestep time="42.00">
        <vehicle id="amts1" eclass="HBEFA3/PC_G_EU4" CO2="0.00" CO="0.00" HC="0.00" NOx="0.00" PMx="0.00" fuel="0.00" electricity="0.00" noise="60.07" route="car_route" type="BUS1" waiting="0.00" lane="166458245#1_0" pos="88.86" speed="12.58" angle="215.25" x="1963.27" y="2805.87"/>
    </timestep>
    <timestep time="43.00">
        <vehicle id="amts1" eclass="HBEFA3/PC_G_EU4" CO2="0.00" CO="0.00" HC="0.00" NOx="0.00" PMx="0.00" fuel="0.00" electricity="0.00" noise="54.45" route="car_route" type="BUS1" waiting="0.00" lane="166458245#1_0" pos="97.01" speed="8.15" angle="216.11" x="1958.45" y="2799.26"/>
    </timestep>
    <timestep time="44.00">
        <vehicle id="amts1" eclass="HBEFA3/PC_G_EU4" CO2="0.00" CO="0.00" HC="0.00" NOx="0.00" PMx="0.00" fuel="0.00" electricity="0.00" noise="46.80" route="car_route" type="BUS1" waiting="0.00" lane="166458245#1_0" pos="101.13" speed="4.12" angle="216.11" x="1956.01" y="2795.92"/>
    </timestep>
    <timestep time="45.00">
        <vehicle id="amts1" eclass="HBEFA3/PC_G_EU4" CO2="2417.04" CO="157.34" HC="0.77" NOx="1.10" PMx="0.06" fuel="770.98" electricity="0.00" noise="38.69" route="car_route" type="BUS1" waiting="0.00" lane="166458245#1_0" pos="101.31" speed="0.18" angle="216.11" x="1955.90" y="2795.77"/>
    </timestep>
    <timestep time="46.00">
        <vehicle id="amts1" eclass="HBEFA3/PC_G_EU4" CO2="2613.89" CO="163.35" HC="0.81" NOx="1.20" PMx="0.07" fuel="833.77" electricity="0.00" noise="55.48" route="car_route" type="BUS1" waiting="1.00" lane="166458245#1_0" pos="101.37" speed="0.07" angle="216.11" x="1955.86" y="2795.71"/>
    </timestep>
    <timestep time="47.00">
        <vehicle id="amts1" eclass="HBEFA3/PC_G_EU4" CO2="2616.69" CO="163.53" HC="0.81" NOx="1.20" PMx="0.07" fuel="834.66" electricity="0.00" noise="55.93" route="car_route" type="BUS1" waiting="2.00" lane="166458245#1_0" pos="101.44" speed="0.06" angle="216.11" x="1955.82" y="2795.66"/>
    </timestep>
    <timestep time="48.00">
        <vehicle id="amts1" eclass="HBEFA3/PC_G_EU4" CO2="2624.35" CO="164.73" HC="0.81" NOx="1.20" PMx="0.07" fuel="837.10" electricity="0.00" noise="55.68" route="car_route" type="BUS1" waiting="3.00" lane="166458245#1_0" pos="101.44" speed="0.00" angle="216.11" x="1955.82" y="2795.66"/>
    </timestep>
    <timestep time="49.00">
        <vehicle id="amts1" eclass="HBEFA3/PC_G_EU4" CO2="2624.70" CO="164.77" HC="0.81" NOx="1.20" PMx="0.07" fuel="837.21" electricity="0.00" noise="55.93" route="car_route" type="BUS1" waiting="4.00" lane="166458245#1_0" pos="101.44" speed="0.00" angle="216.11" x="1955.82" y="2795.66"/>
    </timestep>
    <timestep time="50.00">
        <vehicle id="amts1" eclass="HBEFA3/PC_G_EU4" CO2="2624.71" CO="164.78" HC="0.81" NOx="1.20" PMx="0.07" fuel="837.22" electricity="0.00" noise="55.94" route="car_route" type="BUS1" waiting="5.00" lane="166458245#1_0" pos="101.44" speed="0.00" angle="216.11" x="1955.82" y="2795.66"/>
    </timestep>
    <timestep time="51.00">
        <vehicle id="amts1" eclass="HBEFA3/PC_G_EU4" CO2="2624.72" CO="164.78" HC="0.81" NOx="1.20" PMx="0.07" fuel="837.22" electricity="0.00" noise="55.94" route="car_route" type="BUS1" waiting="6.00" lane="166458245#1_0" pos="101.44" speed="0.00" angle="216.11" x="1955.82" y="2795.66"/>
    </timestep>
    <timestep time="52.00">
        <vehicle id="amts1" eclass="HBEFA3/PC_G_EU4" CO2="2624.72" CO="164.78" HC="0.81" NOx="1.20" PMx="0.07" fuel="837.22" electricity="0.00" noise="55.94" route="car_route" type="BUS1" waiting="7.00" lane="166458245#1_0" pos="101.44" speed="0.00" angle="216.11" x="1955.82" y="2795.66"/>
    </timestep>
    <timestep time="53.00">
        <vehicle id="amts1" eclass="HBEFA3/PC_G_EU4" CO2="2624.72" CO="164.78" HC="0.81" NOx="1.20" PMx="0.07" fuel="837.22" electricity="0.00" noise="55.94" route="car_route" type="BUS1" waiting="8.00" lane="166458245#1_0" pos="101.44" speed="0.00" angle="216.11" x="1955.82" y="2795.66"/>
    </timestep>
    <timestep time="54.00">
        <vehicle id="amts1" eclass="HBEFA3/PC_G_EU4" CO2="2624.72" CO="164.78" HC="0.81" NOx="1.20" PMx="0.07" fuel="837.22" electricity="0.00" noise="55.94" route="car_route" type="BUS1" waiting="9.00" lane="166458245#1_0" pos="101.44" speed="0.00" angle="216.11" x="1955.82" y="2795.66"/>
    </timestep>
    <timestep time="55.00">
        <vehicle id="amts1" eclass="HBEFA3/PC_G_EU4" CO2="2624.72" CO="164.78" HC="0.81" NOx="1.20" PMx="0.07" fuel="837.22" electricity="0.00" noise="55.94" route="car_route" type="BUS1" waiting="10.00" lane="166458245#1_0" pos="101.44" speed="0.00" angle="216.11" x="1955.82" y="2795.66"/>
    </timestep>
    <timestep time="56.00">
        <vehicle id="amts1" eclass="HBEFA3/PC_G_EU4" CO2="2624.72" CO="164.78" HC="0.81" NOx="1.20" PMx="0.07" fuel="837.22" electricity="0.00" noise="55.94" route="car_route" type="BUS1" waiting="11.00" lane="166458245#1_0" pos="101.44" speed="0.00" angle="216.11" x="1955.82" y="2795.66"/>
    </timestep>
    <timestep time="57.00">
        <vehicle id="amts1" eclass="HBEFA3/PC_G_EU4" CO2="2624.72" CO="164.78" HC="0.81" NOx="1.20" PMx="0.07" fuel="837.22" electricity="0.00" noise="55.94" route="car_route" type="BUS1" waiting="12.00" lane="166458245#1_0" pos="101.44" speed="0.00" angle="216.11" x="1955.82" y="2795.66"/>
    </timestep>
    <timestep time="58.00">
        <vehicle id="amts1" eclass="HBEFA3/PC_G_EU4" CO2="2624.72" CO="164.78" HC="0.81" NOx="1.20" PMx="0.07" fuel="837.22" electricity="0.00" noise="55.94" route="car_route" type="BUS1" waiting="13.00" lane="166458245#1_0" pos="101.44" speed="0.00" angle="216.11" x="1955.82" y="2795.66"/>
    </timestep>
    <timestep time="59.00">
        <vehicle id="amts1" eclass="HBEFA3/PC_G_EU4" CO2="2624.72" CO="164.78" HC="0.81" NOx="1.20" PMx="0.07" fuel="837.22" electricity="0.00" noise="55.94" route="car_route" type="BUS1" waiting="14.00" lane="166458245#1_0" pos="101.44" speed="0.00" angle="216.11" x="1955.82" y="2795.66"/>
    </timestep>
    <timestep time="60.00">
        <vehicle id="amts1" eclass="HBEFA3/PC_G_EU4" CO2="2624.72" CO="164.78" HC="0.81" NOx="1.20" PMx="0.07" fuel="837.22" electricity="0.00" noise="55.94" route="car_route" type="BUS1" waiting="15.00" lane="166458245#1_0" pos="101.44" speed="0.00" angle="216.11" x="1955.82" y="2795.66"/>
    </timestep>
    <timestep time="61.00">
        <vehicle id="amts1" eclass="HBEFA3/PC_G_EU4" CO2="2624.72" CO="164.78" HC="0.81" NOx="1.20" PMx="0.07" fuel="837.22" electricity="0.00" noise="55.94" route="car_route" type="BUS1" waiting="16.00" lane="166458245#1_0" pos="101.44" speed="0.00" angle="216.11" x="1955.82" y="2795.66"/>
    </timestep>
    <timestep time="62.00">
        <vehicle id="amts1" eclass="HBEFA3/PC_G_EU4" CO2="2624.72" CO="164.78" HC="0.81" NOx="1.20" PMx="0.07" fuel="837.22" electricity="0.00" noise="55.94" route="car_route" type="BUS1" waiting="17.00" lane="166458245#1_0" pos="101.44" speed="0.00" angle="216.11" x="1955.82" y="2795.66"/>
    </timestep>
    <timestep time="63.00">
        <vehicle id="amts1" eclass="HBEFA3/PC_G_EU4" CO2="2624.72" CO="164.78" HC="0.81" NOx="1.20" PMx="0.07" fuel="837.22" electricity="0.00" noise="55.94" route="car_route" type="BUS1" waiting="18.00" lane="166458245#1_0" pos="101.44" speed="0.00" angle="216.11" x="1955.82" y="2795.66"/>
    </timestep>
    <timestep time="64.00">
        <vehicle id="amts1" eclass="HBEFA3/PC_G_EU4" CO2="2624.72" CO="164.78" HC="0.81" NOx="1.20" PMx="0.07" fuel="837.22" electricity="0.00" noise="55.94" route="car_route" type="BUS1" waiting="19.00" lane="166458245#1_0" pos="101.44" speed="0.00" angle="216.11" x="1955.82" y="2795.66"/>
    </timestep>
    <timestep time="65.00">
        <vehicle id="amts1" eclass="HBEFA3/PC_G_EU4" CO2="2624.72" CO="164.78" HC="0.81" NOx="1.20" PMx="0.07" fuel="837.22" electricity="0.00" noise="55.94" route="car_route" type="BUS1" waiting="20.00" lane="166458245#1_0" pos="101.44" speed="0.00" angle="216.11" x="1955.82" y="2795.66"/>
    </timestep>
    <timestep time="66.00">
        <vehicle id="amts1" eclass="HBEFA3/PC_G_EU4" CO2="2624.72" CO="164.78" HC="0.81" NOx="1.20" PMx="0.07" fuel="837.22" electricity="0.00" noise="55.94" route="car_route" type="BUS1" waiting="21.00" lane="166458245#1_0" pos="101.44" speed="0.00" angle="216.11" x="1955.82" y="2795.66"/>
    </timestep>
    <timestep time="67.00">
        <vehicle id="amts1" eclass="HBEFA3/PC_G_EU4" CO2="2624.72" CO="164.78" HC="0.81" NOx="1.20" PMx="0.07" fuel="837.22" electricity="0.00" noise="55.94" route="car_route" type="BUS1" waiting="22.00" lane="166458245#1_0" pos="101.44" speed="0.00" angle="216.11" x="1955.82" y="2795.66"/>
    </timestep>
    <timestep time="68.00">
        <vehicle id="amts1" eclass="HBEFA3/PC_G_EU4" CO2="2624.72" CO="164.78" HC="0.81" NOx="1.20" PMx="0.07" fuel="837.22" electricity="0.00" noise="55.94" route="car_route" type="BUS1" waiting="23.00" lane="166458245#1_0" pos="101.44" speed="0.00" angle="216.11" x="1955.82" y="2795.66"/>
    </timestep>
    <timestep time="69.00">
        <vehicle id="amts1" eclass="HBEFA3/PC_G_EU4" CO2="2624.72" CO="164.78" HC="0.81" NOx="1.20" PMx="0.07" fuel="837.22" electricity="0.00" noise="55.94" route="car_route" type="BUS1" waiting="24.00" lane="166458245#1_0" pos="101.44" speed="0.00" angle="216.11" x="1955.82" y="2795.66"/>
    </timestep>
    <timestep time="70.00">
        <vehicle id="amts1" eclass="HBEFA3/PC_G_EU4" CO2="2624.72" CO="164.78" HC="0.81" NOx="1.20" PMx="0.07" fuel="837.22" electricity="0.00" noise="55.94" route="car_route" type="BUS1" waiting="25.00" lane="166458245#1_0" pos="101.44" speed="0.00" angle="216.11" x="1955.82" y="2795.66"/>
    </timestep>
    <timestep time="71.00">
        <vehicle id="amts1" eclass="HBEFA3/PC_G_EU4" CO2="2624.72" CO="164.78" HC="0.81" NOx="1.20" PMx="0.07" fuel="837.22" electricity="0.00" noise="55.94" route="car_route" type="BUS1" waiting="26.00" lane="166458245#1_0" pos="101.44" speed="0.00" angle="216.11" x="1955.82" y="2795.66"/>
    </timestep>
    <timestep time="72.00">
        <vehicle id="amts1" eclass="HBEFA3/PC_G_EU4" CO2="2624.72" CO="164.78" HC="0.81" NOx="1.20" PMx="0.07" fuel="837.22" electricity="0.00" noise="55.94" route="car_route" type="BUS1" waiting="27.00" lane="166458245#1_0" pos="101.44" speed="0.00" angle="216.11" x="1955.82" y="2795.66"/>
    </timestep>
    <timestep time="73.00">
        <vehicle id="amts1" eclass="HBEFA3/PC_G_EU4" CO2="2624.72" CO="164.78" HC="0.81" NOx="1.20" PMx="0.07" fuel="837.22" electricity="0.00" noise="55.94" route="car_route" type="BUS1" waiting="28.00" lane="166458245#1_0" pos="101.44" speed="0.00" angle="216.11" x="1955.82" y="2795.66"/>
    </timestep>
    <timestep time="74.00">
        <vehicle id="amts1" eclass="HBEFA3/PC_G_EU4" CO2="2624.72" CO="164.78" HC="0.81" NOx="1.20" PMx="0.07" fuel="837.22" electricity="0.00" noise="55.94" route="car_route" type="BUS1" waiting="29.00" lane="166458245#1_0" pos="101.44" speed="0.00" angle="216.11" x="1955.82" y="2795.66"/>
    </timestep>
    <timestep time="75.00">
        <vehicle id="amts1" eclass="HBEFA3/PC_G_EU4" CO2="2624.72" CO="164.78" HC="0.81" NOx="1.20" PMx="0.07" fuel="837.22" electricity="0.00" noise="55.94" route="car_route" type="BUS1" waiting="30.00" lane="166458245#1_0" pos="101.44" speed="0.00" angle="216.11" x="1955.82" y="2795.66"/>
    </timestep>
    <timestep time="76.00">
        <vehicle id="amts1" eclass="HBEFA3/PC_G_EU4" CO2="2624.72" CO="164.78" HC="0.81" NOx="1.20" PMx="0.07" fuel="837.22" electricity="0.00" noise="55.94" route="car_route" type="BUS1" waiting="31.00" lane="166458245#1_0" pos="101.44" speed="0.00" angle="216.11" x="1955.82" y="2795.66"/>
    </timestep>
    <timestep time="77.00">
        <vehicle id="amts1" eclass="HBEFA3/PC_G_EU4" CO2="2624.72" CO="164.78" HC="0.81" NOx="1.20" PMx="0.07" fuel="837.22" electricity="0.00" noise="55.94" route="car_route" type="BUS1" waiting="32.00" lane="166458245#1_0" pos="101.44" speed="0.00" angle="216.11" x="1955.82" y="2795.66"/>
    </timestep>
    <timestep time="78.00">
        <vehicle id="amts1" eclass="HBEFA3/PC_G_EU4" CO2="2624.72" CO="164.78" HC="0.81" NOx="1.20" PMx="0.07" fuel="837.22" electricity="0.00" noise="55.94" route="car_route" type="BUS1" waiting="33.00" lane="166458245#1_0" pos="101.44" speed="0.00" angle="216.11" x="1955.82" y="2795.66"/>
    </timestep>
    <timestep time="79.00">
        <vehicle id="amts1" eclass="HBEFA3/PC_G_EU4" CO2="2624.72" CO="164.78" HC="0.81" NOx="1.20" PMx="0.07" fuel="837.22" electricity="0.00" noise="55.94" route="car_route" type="BUS1" waiting="34.00" lane="166458245#1_0" pos="101.44" speed="0.00" angle="216.11" x="1955.82" y="2795.66"/>
    </timestep>
    <timestep time="80.00">
        <vehicle id="amts1" eclass="HBEFA3/PC_G_EU4" CO2="2624.72" CO="164.78" HC="0.81" NOx="1.20" PMx="0.07" fuel="837.22" electricity="0.00" noise="55.94" route="car_route" type="BUS1" waiting="35.00" lane="166458245#1_0" pos="101.44" speed="0.00" angle="216.11" x="1955.82" y="2795.66"/>
    </timestep>
    <timestep time="81.00">
        <vehicle id="amts1" eclass="HBEFA3/PC_G_EU4" CO2="2624.72" CO="164.78" HC="0.81" NOx="1.20" PMx="0.07" fuel="837.22" electricity="0.00" noise="55.94" route="car_route" type="BUS1" waiting="36.00" lane="166458245#1_0" pos="101.44" speed="0.00" angle="216.11" x="1955.82" y="2795.66"/>
    </timestep>
    <timestep time="82.00">
        <vehicle id="amts1" eclass="HBEFA3/PC_G_EU4" CO2="2624.72" CO="164.78" HC="0.81" NOx="1.20" PMx="0.07" fuel="837.22" electricity="0.00" noise="55.94" route="car_route" type="BUS1" waiting="37.00" lane="166458245#1_0" pos="101.44" speed="0.00" angle="216.11" x="1955.82" y="2795.66"/>
    </timestep>
    <timestep time="83.00">
        <vehicle id="amts1" eclass="HBEFA3/PC_G_EU4" CO2="2624.72" CO="164.78" HC="0.81" NOx="1.20" PMx="0.07" fuel="837.22" electricity="0.00" noise="55.94" route="car_route" type="BUS1" waiting="38.00" lane="166458245#1_0" pos="101.44" speed="0.00" angle="216.11" x="1955.82" y="2795.66"/>
    </timestep>
    <timestep time="84.00">
        <vehicle id="amts1" eclass="HBEFA3/PC_G_EU4" CO2="2624.72" CO="164.78" HC="0.81" NOx="1.20" PMx="0.07" fuel="837.22" electricity="0.00" noise="55.94" route="car_route" type="BUS1" waiting="39.00" lane="166458245#1_0" pos="101.44" speed="0.00" angle="216.11" x="1955.82" y="2795.66"/>
    </timestep>
    <timestep time="85.00">
        <vehicle id="amts1" eclass="HBEFA3/PC_G_EU4" CO2="2624.72" CO="164.78" HC="0.81" NOx="1.20" PMx="0.07" fuel="837.22" electricity="0.00" noise="55.94" route="car_route" type="BUS1" waiting="40.00" lane="166458245#1_0" pos="101.44" speed="0.00" angle="216.11" x="1955.82" y="2795.66"/>
    </timestep>
    <timestep time="86.00">
        <vehicle id="amts1" eclass="HBEFA3/PC_G_EU4" CO2="2624.72" CO="164.78" HC="0.81" NOx="1.20" PMx="0.07" fuel="837.22" electricity="0.00" noise="55.94" route="car_route" type="BUS1" waiting="41.00" lane="166458245#1_0" pos="101.44" speed="0.00" angle="216.11" x="1955.82" y="2795.66"/>
    </timestep>
    <timestep time="87.00">
        <vehicle id="amts1" eclass="HBEFA3/PC_G_EU4" CO2="2624.72" CO="164.78" HC="0.81" NOx="1.20" PMx="0.07" fuel="837.22" electricity="0.00" noise="55.94" route="car_route" type="BUS1" waiting="42.00" lane="166458245#1_0" pos="101.44" speed="0.00" angle="216.11" x="1955.82" y="2795.66"/>
    </timestep>
    <timestep time="88.00">
        <vehicle id="amts1" eclass="HBEFA3/PC_G_EU4" CO2="2624.72" CO="164.78" HC="0.81" NOx="1.20" PMx="0.07" fuel="837.22" electricity="0.00" noise="55.94" route="car_route" type="BUS1" waiting="43.00" lane="166458245#1_0" pos="101.44" speed="0.00" angle="216.11" x="1955.82" y="2795.66"/>
    </timestep>
    <timestep time="89.00">
        <vehicle id="amts1" eclass="HBEFA3/PC_G_EU4" CO2="2624.72" CO="164.78" HC="0.81" NOx="1.20" PMx="0.07" fuel="837.22" electricity="0.00" noise="55.94" route="car_route" type="BUS1" waiting="44.00" lane="166458245#1_0" pos="101.44" speed="0.00" angle="216.11" x="1955.82" y="2795.66"/>
    </timestep>
    <timestep time="90.00">
        <vehicle id="amts1" eclass="HBEFA3/PC_G_EU4" CO2="2624.72" CO="164.78" HC="0.81" NOx="1.20" PMx="0.07" fuel="837.22" electricity="0.00" noise="55.94" route="car_route" type="BUS1" waiting="45.00" lane="166458245#1_0" pos="101.44" speed="0.00" angle="216.11" x="1955.82" y="2795.66"/>
    </timestep>
    <timestep time="91.00">
        <vehicle id="amts1" eclass="HBEFA3/PC_G_EU4" CO2="2624.72" CO="164.78" HC="0.81" NOx="1.20" PMx="0.07" fuel="837.22" electricity="0.00" noise="55.94" route="car_route" type="BUS1" waiting="46.00" lane="166458245#1_0" pos="101.44" speed="0.00" angle="216.11" x="1955.82" y="2795.66"/>
    </timestep>
    <timestep time="92.00">
        <vehicle id="amts1" eclass="HBEFA3/PC_G_EU4" CO2="2624.72" CO="164.78" HC="0.81" NOx="1.20" PMx="0.07" fuel="837.22" electricity="0.00" noise="55.94" route="car_route" type="BUS1" waiting="47.00" lane="166458245#1_0" pos="101.44" speed="0.00" angle="216.11" x="1955.82" y="2795.66"/>
    </timestep>
    <timestep time="93.00">
        <vehicle id="amts1" eclass="HBEFA3/PC_G_EU4" CO2="2624.72" CO="164.78" HC="0.81" NOx="1.20" PMx="0.07" fuel="837.22" electricity="0.00" noise="55.94" route="car_route" type="BUS1" waiting="48.00" lane="166458245#1_0" pos="101.44" speed="0.00" angle="216.11" x="1955.82" y="2795.66"/>
    </timestep>
    <timestep time="94.00">
        <vehicle id="amts1" eclass="HBEFA3/PC_G_EU4" CO2="2624.72" CO="164.78" HC="0.81" NOx="1.20" PMx="0.07" fuel="837.22" electricity="0.00" noise="55.94" route="car_route" type="BUS1" waiting="49.00" lane="166458245#1_0" pos="101.44" speed="0.00" angle="216.11" x="1955.82" y="2795.66"/>
    </timestep>
    <timestep time="95.00">