<?xml version="1.0" encoding="UTF-8"?>

<!-- generated on 2024-05-01 02:50:22 by Eclipse SUMO sumo Version 1.19.0
<configuration xmlns:xsi="http://www.w3.org/2001/XMLSchema-instance" xsi:noNamespaceSchemaLocation="http://sumo.dlr.de/xsd/sumoConfiguration.xsd">

    <input>
        <net-file value="Case2_4_BRTS.net.xml"/>
        <route-files value="BRTS.route.xml"/>
    </input>

    <output>
        <emission-output value="Case2_BRTS_emission.xml"/>
    </output>

    <time>
        <begin value="0"/>
        <end value="1000"/>
    </time>

    <processing>
        <ignore-route-errors value="True"/>
    </processing>

</configuration>
-->

<emission-export xmlns:xsi="http://www.w3.org/2001/XMLSchema-instance" xsi:noNamespaceSchemaLocation="http://sumo.dlr.de/xsd/emission_file.xsd">
    <timestep time="0.00"/>
    <timestep time="1.00"/>
    <timestep time="2.00"/>
    <timestep time="3.00"/>
    <timestep time="4.00"/>
    <timestep time="5.00"/>
    <timestep time="6.00"/>
    <timestep time="7.00"/>
    <timestep time="8.00"/>
    <timestep time="9.00"/>
    <timestep time="10.00">
        <vehicle id="BUS1" eclass="HBEFA3/PC_G_EU4" CO2="2624.72" CO="164.78" HC="0.81" NOx="1.20" PMx="0.07" fuel="837.22" electricity="0.00" noise="55.94" route="bus_route" type="BUS" waiting="0.00" lane="166458245#0_0" pos="12.10" speed="0.00" angle="226.74" x="2146.22" y="3060.00"/>
    </timestep>
    <timestep time="11.00">
        <vehicle id="BUS1" eclass="HBEFA3/PC_G_EU4" CO2="2622.57" CO="156.59" HC="0.77" NOx="1.19" PMx="0.06" fuel="836.53" electricity="0.00" noise="58.17" route="bus_route" type="BUS" waiting="0.00" lane="166458245#0_0" pos="12.57" speed="0.47" angle="226.74" x="2145.88" y="3059.68"/>
    </timestep>
    <timestep time="12.00">
        <vehicle id="BUS1" eclass="HBEFA3/PC_G_EU4" CO2="2686.24" CO="146.49" HC="0.73" NOx="1.20" PMx="0.06" fuel="856.84" electricity="0.00" noise="59.33" route="bus_route" type="BUS" waiting="0.00" lane="166458245#0_0" pos="13.70" speed="1.14" angle="226.74" x="2145.05" y="3058.90"/>
    </timestep>
    <timestep time="13.00">
        <vehicle id="BUS1" eclass="HBEFA3/PC_G_EU4" CO2="2779.15" CO="136.02" HC="0.68" NOx="1.23" PMx="0.06" fuel="886.47" electricity="0.00" noise="60.00" route="bus_route" type="BUS" waiting="0.00" lane="166458245#0_0" pos="15.59" speed="1.89" angle="226.74" x="2143.67" y="3057.60"/>
    </timestep>
    <timestep time="14.00">
        <vehicle id="BUS1" eclass="HBEFA3/PC_G_EU4" CO2="2744.30" CO="125.70" HC="0.64" NOx="1.19" PMx="0.06" fuel="875.35" electricity="0.00" noise="59.61" route="bus_route" type="BUS" waiting="0.00" lane="166458245#0_0" pos="18.09" speed="2.50" angle="226.74" x="2141.85" y="3055.89"/>
    </timestep>
    <timestep time="15.00">
        <vehicle id="BUS1" eclass="HBEFA3/PC_G_EU4" CO2="2724.14" CO="117.11" HC="0.60" NOx="1.17" PMx="0.05" fuel="868.92" electricity="0.00" noise="59.53" route="bus_route" type="BUS" waiting="0.00" lane="166458245#0_0" pos="21.12" speed="3.03" angle="226.74" x="2139.64" y="3053.81"/>
    </timestep>
    <timestep time="16.00">
        <vehicle id="BUS1" eclass="HBEFA3/PC_G_EU4" CO2="2670.16" CO="109.36" HC="0.56" NOx="1.13" PMx="0.05" fuel="851.70" electricity="0.00" noise="59.36" route="bus_route" type="BUS" waiting="0.00" lane="166458245#0_0" pos="24.59" speed="3.47" angle="226.41" x="2137.16" y="3051.38"/>
    </timestep>
    <timestep time="17.00">
        <vehicle id="BUS1" eclass="HBEFA3/PC_G_EU4" CO2="2879.25" CO="104.76" HC="0.54" NOx="1.21" PMx="0.05" fuel="918.38" electricity="0.00" noise="60.38" route="bus_route" type="BUS" waiting="0.00" lane="166458245#0_0" pos="28.68" speed="4.09" angle="224.44" x="2134.47" y="3048.28"/>
    </timestep>
    <timestep time="18.00">
        <vehicle id="BUS1" eclass="HBEFA3/PC_G_EU4" CO2="3038.52" CO="98.44" HC="0.52" NOx="1.27" PMx="0.05" fuel="969.18" electricity="0.00" noise="61.03" route="bus_route" type="BUS" waiting="0.00" lane="166458245#0_0" pos="33.45" speed="4.77" angle="222.14" x="2131.34" y="3044.67"/>
    </timestep>
    <timestep time="19.00">
        <vehicle id="BUS1" eclass="HBEFA3/PC_G_EU4" CO2="2933.45" CO="88.76" HC="0.47" NOx="1.20" PMx="0.05" fuel="935.67" electricity="0.00" noise="60.80" route="bus_route" type="BUS" waiting="0.00" lane="166458245#0_0" pos="38.79" speed="5.33" angle="220.97" x="2127.83" y="3040.64"/>
    </timestep>
    <timestep time="20.00">
        <vehicle id="BUS1" eclass="HBEFA3/PC_G_EU4" CO2="3209.37" CO="85.53" HC="0.46" NOx="1.32" PMx="0.05" fuel="1023.67" electricity="0.00" noise="61.70" route="bus_route" type="BUS" waiting="0.00" lane="166458245#0_0" pos="44.81" speed="6.02" angle="220.97" x="2123.88" y="3036.08"/>
    </timestep>
    <timestep time="21.00">
        <vehicle id="BUS1" eclass="HBEFA3/PC_G_EU4" CO2="3080.06" CO="75.86" HC="0.42" NOx="1.24" PMx="0.05" fuel="982.42" electricity="0.00" noise="61.52" route="bus_route" type="BUS" waiting="0.00" lane="166458245#0_0" pos="51.40" speed="6.59" angle="220.97" x="2119.55" y="3031.10"/>
    </timestep>
    <timestep time="22.00">
        <vehicle id="BUS1" eclass="HBEFA3/PC_G_EU4" CO2="3574.21" CO="76.89" HC="0.43" NOx="1.45" PMx="0.06" fuel="1140.03" electricity="0.00" noise="62.77" route="bus_route" type="BUS" waiting="0.00" lane="166458245#0_0" pos="58.75" speed="7.36" angle="220.43" x="2114.81" y="3025.46"/>
    </timestep>
    <timestep time="23.00">
        <vehicle id="BUS1" eclass="HBEFA3/PC_G_EU4" CO2="3496.99" CO="67.74" HC="0.39" NOx="1.40" PMx="0.05" fuel="1115.39" electricity="0.00" noise="62.77" route="bus_route" type="BUS" waiting="0.00" lane="166458245#0_0" pos="66.78" speed="8.03" angle="218.18" x="2109.90" y="3019.09"/>
    </timestep>
    <timestep time="24.00">
        <vehicle id="BUS1" eclass="HBEFA3/PC_G_EU4" CO2="3681.82" CO="64.08" HC="0.38" NOx="1.47" PMx="0.06" fuel="1174.35" electricity="0.00" noise="63.29" route="bus_route" type="BUS" waiting="0.00" lane="166458245#0_0" pos="75.51" speed="8.73" angle="217.62" x="2104.56" y="3012.16"/>
    </timestep>
    <timestep time="25.00">
        <vehicle id="BUS1" eclass="HBEFA3/PC_G_EU4" CO2="3867.73" CO="60.67" HC="0.37" NOx="1.54" PMx="0.06" fuel="1233.64" electricity="0.00" noise="63.79" route="bus_route" type="BUS" waiting="0.00" lane="166458245#0_0" pos="84.96" speed="9.45" angle="217.62" x="2098.78" y="3004.67"/>
    </timestep>
    <timestep time="26.00">
        <vehicle id="BUS1" eclass="HBEFA3/PC_G_EU4" CO2="3355.93" CO="45.52" HC="0.28" NOx="1.28" PMx="0.05" fuel="1070.40" electricity="0.00" noise="63.26" route="bus_route" type="BUS" waiting="0.00" lane="166458245#0_0" pos="94.89" speed="9.93" angle="217.62" x="2092.71" y="2996.79"/>
    </timestep>
    <timestep time="27.00">
        <vehicle id="BUS1" eclass="HBEFA3/PC_G_EU4" CO2="3346.32" CO="41.17" HC="0.26" NOx="1.27" PMx="0.04" fuel="1067.33" electricity="0.00" noise="63.45" route="bus_route" type="BUS" waiting="0.00" lane="166458245#0_0" pos="105.27" speed="10.38" angle="217.30" x="2086.41" y="2988.51"/>
    </timestep>
    <timestep time="28.00">
        <vehicle id="BUS1" eclass="HBEFA3/PC_G_EU4" CO2="3895.48" CO="47.14" HC="0.30" NOx="1.51" PMx="0.06" fuel="1242.48" electricity="0.00" noise="64.36" route="bus_route" type="BUS" waiting="0.00" lane="166458245#0_0" pos="116.26" speed="10.99" angle="217.04" x="2079.78" y="2979.72"/>
    </timestep>
    <timestep time="29.00">
        <vehicle id="BUS1" eclass="HBEFA3/PC_G_EU4" CO2="4609.27" CO="55.39" HC="0.36" NOx="1.83" PMx="0.07" fuel="1470.14" electricity="0.00" noise="65.45" route="bus_route" type="BUS" waiting="0.00" lane="166458245#0_0" pos="128.04" speed="11.78" angle="217.05" x="2072.67" y="2970.30"/>
    </timestep>
    <timestep time="30.00">
        <vehicle id="BUS1" eclass="HBEFA3/PC_G_EU4" CO2="4648.95" CO="50.64" HC="0.34" NOx="1.83" PMx="0.07" fuel="1482.80" electricity="0.00" noise="65.74" route="bus_route" type="BUS" waiting="0.00" lane="166458245#0_0" pos="140.56" speed="12.52" angle="217.72" x="2064.99" y="2960.38"/>
    </timestep>
    <timestep time="31.00">
        <vehicle id="BUS1" eclass="HBEFA3/PC_G_EU4" CO2="4449.81" CO="42.13" HC="0.30" NOx="1.72" PMx="0.07" fuel="1419.28" electricity="0.00" noise="65.79" route="bus_route" type="BUS" waiting="0.00" lane="166458245#0_0" pos="153.72" speed="13.15" angle="217.72" x="2056.93" y="2949.95"/>
    </timestep>
    <timestep time="32.00">
        <vehicle id="BUS1" eclass="HBEFA3/PC_G_EU4" CO2="3930.51" CO="28.48" HC="0.22" NOx="1.46" PMx="0.05" fuel="1253.65" electricity="0.00" noise="65.56" route="bus_route" type="BUS" waiting="0.00" lane="166458245#0_0" pos="167.33" speed="13.61" angle="217.68" x="2048.59" y="2939.16"/>
    </timestep>
    <timestep time="33.00">
        <vehicle id="BUS1" eclass="HBEFA3/PC_G_EU4" CO2="4684.77" CO="40.24" HC="0.29" NOx="1.80" PMx="0.07" fuel="1494.22" electricity="0.00" noise="66.44" route="bus_route" type="BUS" waiting="0.00" lane="166458245#0_0" pos="181.56" speed="14.24" angle="214.71" x="2040.47" y="2927.44"/>
    </timestep>
    <timestep time="34.00">
        <vehicle id="BUS1" eclass="HBEFA3/PC_G_EU4" CO2="3996.16" CO="23.73" HC="0.20" NOx="1.47" PMx="0.05" fuel="1274.59" electricity="0.00" noise="66.11" route="bus_route" type="BUS" waiting="0.00" lane="166458245#0_0" pos="196.21" speed="14.65" angle="214.79" x="2032.10" y="2915.38"/>
    </timestep>
    <timestep time="35.00">
        <vehicle id="BUS1" eclass="HBEFA3/PC_G_EU4" CO2="4542.28" CO="32.24" HC="0.25" NOx="1.71" PMx="0.07" fuel="1448.77" electricity="0.00" noise="66.74" route="bus_route" type="BUS" waiting="0.00" lane="166458245#0_0" pos="211.39" speed="15.18" angle="213.88" x="2023.58" y="2902.79"/>
    </timestep>
    <timestep time="36.00">
        <vehicle id="BUS1" eclass="HBEFA3/PC_G_EU4" CO2="4830.39" CO="35.50" HC="0.28" NOx="1.83" PMx="0.08" fuel="1540.66" electricity="0.00" noise="67.19" route="bus_route" type="BUS" waiting="0.00" lane=":1829509114_0_0" pos="0.23" speed="15.74" angle="211.70" x="2015.30" y="2889.38"/>
    </timestep>
    <timestep time="37.00">
        <vehicle id="BUS1" eclass="HBEFA3/PC_G_EU4" CO2="5942.37" CO="55.15" HC="0.39" NOx="2.34" PMx="0.10" fuel="1895.33" electricity="0.00" noise="68.24" route="bus_route" type="BUS" waiting="0.00" lane="166458245#1_0" pos="7.34" speed="16.51" angle="211.70" x="2006.43" y="2875.02"/>
    </timestep>
    <timestep time="38.00">
        <vehicle id="BUS1" eclass="HBEFA3/PC_G_EU4" CO2="4786.75" CO="29.61" HC="0.25" NOx="1.78" PMx="0.07" fuel="1526.75" electricity="0.00" noise="67.73" route="bus_route" type="BUS" waiting="0.00" lane="166458245#1_0" pos="24.32" speed="16.98" angle="211.57" x="1997.09" y="2859.84"/>
    </timestep>
    <timestep time="39.00">
        <vehicle id="BUS1" eclass="HBEFA3/PC_G_EU4" CO2="4704.91" CO="26.50" HC="0.23" NOx="1.73" PMx="0.07" fuel="1500.64" electricity="0.00" noise="67.88" route="bus_route" type="BUS" waiting="0.00" lane="166458245#1_0" pos="41.74" speed="17.42" angle="211.54" x="1987.53" y="2844.26"/>
    </timestep>
    <timestep time="40.00">
        <vehicle id="BUS1" eclass="HBEFA3/PC_G_EU4" CO2="5794.73" CO="47.14" HC="0.35" NOx="2.23" PMx="0.10" fuel="1848.24" electricity="0.00" noise="68.75" route="bus_route" type="BUS" waiting="0.00" lane="166458245#1_0" pos="59.78" speed="18.04" angle="211.23" x="1977.71" y="2828.07"/>
    </timestep>
    <timestep time="41.00">
        <vehicle id="BUS1" eclass="HBEFA3/PC_G_EU4" CO2="5240.08" CO="34.56" HC="0.28" NOx="1.96" PMx="0.09" fuel="1671.33" electricity="0.00" noise="68.67" route="bus_route" type="BUS" waiting="0.00" lane="166458245#1_0" pos="78.30" speed="18.53" angle="212.25" x="1967.44" y="2811.56"/>
    </timestep>
    <timestep time="42.00">
        <vehicle id="BUS1" eclass="HBEFA3/PC_G_EU4" CO2="0.00" CO="0.00" HC="0.00" NOx="0.00" PMx="0.00" fuel="0.00" electricity="0.00" noise="62.29" route="bus_route" type="BUS" waiting="0.00" lane="166458245#1_0" pos="93.11" speed="14.81" angle="215.76" x="1958.36" y="2798.95"/>
    </timestep>
    <timestep time="43.00">
        <vehicle id="BUS1" eclass="HBEFA3/PC_G_EU4" CO2="0.00" CO="0.00" HC="0.00" NOx="0.00" PMx="0.00" fuel="0.00" electricity="0.00" noise="57.57" route="bus_route" type="BUS" waiting="0.00" lane="166458245#1_0" pos="103.52" speed="10.40" angle="215.76" x="1951.98" y="2790.09"/>
    </timestep>
    <timestep time="44.00">
        <vehicle id="BUS1" eclass="HBEFA3/PC_G_EU4" CO2="0.00" CO="0.00" HC="0.00" NOx="0.00" PMx="0.00" fuel="0.00" electricity="0.00" noise="51.19" route="bus_route" type="BUS" waiting="0.00" lane="166458245#1_0" pos="109.73" speed="6.21" angle="206.02" x="1950.96" y="2785.67"/>
    </timestep>
    <timestep time="45.00">
        <vehicle id="BUS1" eclass="HBEFA3/PC_G_EU4" CO2="0.00" CO="0.00" HC="0.00" NOx="0.00" PMx="0.00" fuel="0.00" electricity="0.00" noise="39.74" route="bus_route" type="BUS" waiting="0.00" lane="166458245#1_0" pos="111.51" speed="1.79" angle="191.40" x="1952.73" y="2785.03"/>
    </timestep>
    <timestep time="46.00">
        <vehicle id="BUS1" eclass="HBEFA3/PC_G_EU4" CO2="2574.76" CO="162.21" HC="0.80" NOx="1.18" PMx="0.06" fuel="821.29" electricity="0.00" noise="48.50" route="bus_route" type="BUS" waiting="1.00" lane="166458245#1_0" pos="111.60" speed="0.09" angle="190.54" x="1952.81" y="2785.00"/>
    </timestep>
    <timestep time="47.00">
        <vehicle id="BUS1" eclass="HBEFA3/PC_G_EU4" CO2="2622.62" CO="164.48" HC="0.81" NOx="1.20" PMx="0.07" fuel="836.55" electricity="0.00" noise="55.62" route="bus_route" type="BUS" waiting="2.00" lane="166458245#1_0" pos="111.61" speed="0.01" angle="190.40" x="1952.83" y="2785.00"/>
    </timestep>
    <timestep time="48.00">
        <vehicle id="BUS1" eclass="HBEFA3/PC_G_EU4" CO2="2624.14" CO="164.69" HC="0.81" NOx="1.20" PMx="0.07" fuel="837.04" electricity="0.00" noise="55.90" route="bus_route" type="BUS" waiting="3.00" lane="166458245#1_0" pos="111.62" speed="0.00" angle="190.36" x="1952.83" y="2785.00"/>
    </timestep>
    <timestep time="49.00">
        <vehicle id="BUS1" eclass="HBEFA3/PC_G_EU4" CO2="2624.65" CO="164.77" HC="0.81" NOx="1.20" PMx="0.07" fuel="837.20" electricity="0.00" noise="55.92" route="bus_route" type="BUS" waiting="4.00" lane="166458245#1_0" pos="111.62" speed="0.00" angle="190.35" x="1952.83" y="2785.00"/>
    </timestep>
    <timestep time="50.00">
        <vehicle id="BUS1" eclass="HBEFA3/PC_G_EU4" CO2="2624.72" CO="164.78" HC="0.81" NOx="1.20" PMx="0.07" fuel="837.22" electricity="0.00" noise="55.94" route="bus_route" type="BUS" waiting="5.00" lane="166458245#1_0" pos="111.62" speed="0.00" angle="190.35" x="1952.83" y="2785.00"/>
        <vehicle id="BUS2" eclass="HBEFA3/PC_G_EU4" CO2="2624.72" CO="164.78" HC="0.81" NOx="1.20" PMx="0.07" fuel="837.22" electricity="0.00" noise="55.94" route="bus_route" type="BUS" waiting="0.00" lane="166458245#0_0" pos="12.10" speed="0.00" angle="226.74" x="2146.22" y="3060.00"/>
    </timestep>
    <timestep time="51.00">
        <vehicle id="BUS1" eclass="HBEFA3/PC_G_EU4" CO2="2624.72" CO="164.78" HC="0.81" NOx="1.20" PMx="0.07" fuel="837.22" electricity="0.00" noise="55.94" route="bus_route" type="BUS" waiting="6.00" lane="166458245#1_0" pos="111.62" speed="0.00" angle="190.35" x="1952.83" y="2785.00"/>
        <vehicle id="BUS2" eclass="HBEFA3/PC_G_EU4" CO2="2665.63" CO="153.44" HC="0.76" NOx="1.20" PMx="0.06" fuel="850.27" electricity="0.00" noise="59.29" route="bus_route" type="BUS" waiting="0.00" lane="166458245#0_0" pos="12.80" speed="0.70" angle="226.74" x="2145.71" y="3059.52"/>
    </timestep>
    <timestep time="52.00">
        <vehicle id="BUS1" eclass="HBEFA3/PC_G_EU4" CO2="2624.72" CO="164.78" HC="0.81" NOx="1.20" PMx="0.07" fuel="837.22" electricity="0.00" noise="55.94" route="bus_route" type="BUS" waiting="7.00" lane="166458245#1_0" pos="111.62" speed="0.00" angle="190.35" x="1952.83" y="2785.00"/>
        <vehicle id="BUS2" eclass="HBEFA3/PC_G_EU4" CO2="2638.34" CO="144.36" HC="0.72" NOx="1.18" PMx="0.06" fuel="841.56" electricity="0.00" noise="58.62" route="bus_route" type="BUS" waiting="0.00" lane="166458245#0_0" pos="14.01" speed="1.21" angle="226.74" x="2144.83" y="3058.69"/>
    </timestep>
    <timestep time="53.00">
        <vehicle id="BUS1" eclass="HBEFA3/PC_G_EU4" CO2="2624.72" CO="164.78" HC="0.81" NOx="1.20" PMx="0.07" fuel="837.22" electricity="0.00" noise="55.94" route="bus_route" type="BUS" waiting="8.00" lane="166458245#1_0" pos="111.62" speed="0.00" angle="190.35" x="1952.83" y="2785.00"/>
        <vehicle id="BUS2" eclass="HBEFA3/PC_G_EU4" CO2="2608.57" CO="136.97" HC="0.68" NOx="1.15" PMx="0.06" fuel="832.06" electricity="0.00" noise="58.38" route="bus_route" type="BUS" waiting="0.00" lane="166458245#0_0" pos="15.62" speed="1.62" angle="226.74" x="2143.65" y="3057.58"/>
    </timestep>
    <timestep time="54.00">
        <vehicle id="BUS1" eclass="HBEFA3/PC_G_EU4" CO2="2624.72" CO="164.78" HC="0.81" NOx="1.20" PMx="0.07" fuel="837.22" electricity="0.00" noise="55.94" route="bus_route" type="BUS" waiting="9.00" lane="166458245#1_0" pos="111.62" speed="0.00" angle="190.35" x="1952.83" y="2785.00"/>
        <vehicle id="BUS2" eclass="HBEFA3/PC_G_EU4" CO2="2754.29" CO="129.55" HC="0.65" NOx="1.20" PMx="0.06" fuel="878.54" electricity="0.00" noise="59.70" route="bus_route" type="BUS" waiting="0.00" lane="166458245#0_0" pos="17.89" speed="2.27" angle="226.74" x="2142.00" y="3056.03"/>
    </timestep>
    <timestep time="55.00">
        <vehicle id="BUS1" eclass="HBEFA3/PC_G_EU4" CO2="2624.72" CO="164.78" HC="0.81" NOx="1.20" PMx="0.07" fuel="837.22" electricity="0.00" noise="55.94" route="bus_route" type="BUS" waiting="10.00" lane="166458245#1_0" pos="111.62" speed="0.00" angle="190.35" x="1952.83" y="2785.00"/>
        <vehicle id="BUS2" eclass="HBEFA3/PC_G_EU4" CO2="2706.29" CO="120.38" HC="0.61" NOx="1.17" PMx="0.05" fuel="863.23" electricity="0.00" noise="59.39" route="bus_route" type="BUS" waiting="0.00" lane="166458245#0_0" pos="20.68" speed="2.79" angle="226.74" x="2139.96" y="3054.11"/>
    </timestep>
    <timestep time="56.00">
        <vehicle id="BUS1" eclass="HBEFA3/PC_G_EU4" CO2="2624.72" CO="164.78" HC="0.81" NOx="1.20" PMx="0.07" fuel="837.22" electricity="0.00" noise="55.94" route="bus_route" type="BUS" waiting="11.00" lane="166458245#1_0" pos="111.62" speed="0.00" angle="190.35" x="1952.83" y="2785.00"/>
        <vehicle id="BUS2" eclass="HBEFA3/PC_G_EU4" CO2="3003.99" CO="114.57" HC="0.59" NOx="1.29" PMx="0.06" fuel="958.17" electricity="0.00" noise="60.92" route="bus_route" type="BUS" waiting="0.00" lane="166458245#0_0" pos="24.26" speed="3.59" angle="226.57" x="2137.37" y="3051.63"/>
    </timestep>
    <timestep time="57.00">
        <vehicle id="BUS1" eclass="HBEFA3/PC_G_EU4" CO2="2624.72" CO="164.78" HC="0.81" NOx="1.20" PMx="0.07" fuel="837.22" electricity="0.00" noise="55.94" route="bus_route" type="BUS" waiting="12.00" lane="166458245#1_0" pos="111.62" speed="0.00" angle="190.35" x="1952.83" y="2785.00"/>
        <vehicle id="BUS2" eclass="HBEFA3/PC_G_EU4" CO2="3105.47" CO="105.35" HC="0.55" NOx="1.31" PMx="0.06" fuel="990.53" electricity="0.00" noise="61.26" route="bus_route" type="BUS" waiting="0.00" lane="166458245#0_0" pos="28.64" speed="4.37" angle="224.46" x="2134.50" y="3048.32"/>
    </timestep>
    <timestep time="58.00">
        <vehicle id="BUS1" eclass="HBEFA3/PC_G_EU4" CO2="2624.72" CO="164.78" HC="0.81" NOx="1.20" PMx="0.07" fuel="837.22" electricity="0.00" noise="55.94" route="bus_route" type="BUS" waiting="13.00" lane="166458245#1_0" pos="111.62" speed="0.00" angle="190.35" x="1952.83" y="2785.00"/>
        <vehicle id="BUS2" eclass="HBEFA3/PC_G_EU4" CO2="2961.26" CO="94.03" HC="0.50" NOx="1.23" PMx="0.05" fuel="944.54" electricity="0.00" noise="60.81" route="bus_route" type="BUS" waiting="0.00" lane="166458245#0_0" pos="33.62" speed="4.98" angle="222.06" x="2131.23" y="3044.55"/>
    </timestep>
    <timestep time="59.00">
        <vehicle id="BUS1" eclass="HBEFA3/PC_G_EU4" CO2="2624.72" CO="164.78" HC="0.81" NOx="1.20" PMx="0.07" fuel="837.22" electricity="0.00" noise="55.94" route="bus_route" type="BUS" waiting="14.00" lane="166458245#1_0" pos="111.62" speed="0.00" angle="190.35" x="1952.83" y="2785.00"/>
        <vehicle id="BUS2" eclass="HBEFA3/PC_G_EU4" CO2="2776.88" CO="84.34" HC="0.45" NOx="1.13" PMx="0.04" fuel="885.73" electricity="0.00" noise="60.37" route="bus_route" type="BUS" waiting="0.00" lane="166458245#0_0" pos="39.04" speed="5.42" angle="220.97" x="2127.66" y="3040.45"/>
    </timestep>
    <timestep time="60.00">
        <vehicle id="BUS1" eclass="HBEFA3/PC_G_EU4" CO2="2624.72" CO="164.78" HC="0.81" NOx="1.20" PMx="0.07" fuel="837.22" electricity="0.00" noise="55.94" route="bus_route" type="BUS" waiting="15.00" lane="166458245#1_0" pos="111.62" speed="0.00" angle="190.35" x="1952.83" y="2785.00"/>
        <vehicle id="BUS2" eclass="HBEFA3/PC_G_EU4" CO2="3018.19" CO="81.96" HC="0.44" NOx="1.23" PMx="0.05" fuel="962.69" electricity="0.00" noise="61.20" route="bus_route" type="BUS" waiting="0.00" lane="166458245#0_0" pos="45.04" speed="5.99" angle="220.97" x="2123.73" y="3035.91"/>
    </timestep>
    <timestep time="61.00">
        <vehicle id="BUS1" eclass="HBEFA3/PC_G_EU4" CO2="2624.72" CO="164.78" HC="0.81" NOx="1.20" PMx="0.07" fuel="837.22" electricity="0.00" noise="55.94" route="bus_route" type="BUS" waiting="16.00" lane="166458245#1_0" pos="111.62" speed="0.00" angle="190.35" x="1952.83" y="2785.00"/>
        <vehicle id="BUS2" eclass="HBEFA3/PC_G_EU4" CO2="3331.65" CO="79.74" HC="0.44" NOx="1.36" PMx="0.05" fuel="1062.66" electricity="0.00" noise="62.12" route="bus_route" type="BUS" waiting="0.00" lane="166458245#0_0" pos="51.73" speed="6.69" angle="220.97" x="2119.33" y="3030.85"/>
    </timestep>
    <timestep time="62.00">
        <vehicle id="BUS1" eclass="HBEFA3/PC_G_EU4" CO2="2624.72" CO="164.78" HC="0.81" NOx="1.20" PMx="0.07" fuel="837.22" electricity="0.00" noise="55.94" route="bus_route" type="BUS" waiting="17.00" lane="166458245#1_0" pos="111.62" speed="0.00" angle="190.35" x="1952.83" y="2785.00"/>
        <vehicle id="BUS2" eclass="HBEFA3/PC_G_EU4" CO2="3012.57" CO="67.36" HC="0.37" NOx="1.19" PMx="0.04" fuel="960.89" electricity="0.00" noise="61.57" route="bus_route" type="BUS" waiting="0.00" lane="166458245#0_0" pos="58.91" speed="7.18" angle="220.38" x="2114.71" y="3025.34"/>
    </timestep>
    <timestep time="63.00">
        <vehicle id="BUS1" eclass="HBEFA3/PC_G_EU4" CO2="2624.72" CO="164.78" HC="0.81" NOx="1.20" PMx="0.07" fuel="837.22" electricity="0.00" noise="55.94" route="bus_route" type="BUS" waiting="18.00" lane="166458245#1_0" pos="111.62" speed="0.00" angle="190.35" x="1952.83" y="2785.00"/>
        <vehicle id="BUS2" eclass="HBEFA3/PC_G_EU4" CO2="3496.04" CO="69.51" HC="0.40" NOx="1.40" PMx="0.05" fuel="1115.09" electricity="0.00" noise="62.73" route="bus_route" type="BUS" waiting="0.00" lane="166458245#0_0" pos="66.78" speed="7.87" angle="218.19" x="2109.90" y="3019.09"/>
    </timestep>
    <timestep time="64.00">
        <vehicle id="BUS1" eclass="HBEFA3/PC_G_EU4" CO2="2624.72" CO="164.78" HC="0.81" NOx="1.20" PMx="0.07" fuel="837.22" electricity="0.00" noise="55.94" route="bus_route" type="BUS" waiting="19.00" lane="166458245#1_0" pos="111.62" speed="0.00" angle="190.35" x="1952.83" y="2785.00"/>
        <vehicle id="BUS2" eclass="HBEFA3/PC_G_EU4" CO2="3236.22" CO="58.45" HC="0.34" NOx="1.27" PMx="0.05" fuel="1032.22" electricity="0.00" noise="62.44" route="bus_route" type="BUS" waiting="0.00" lane="166458245#0_0" pos="75.17" speed="8.39" angle="217.62" x="2104.77" y="3012.43"/>
    </timestep>
    <timestep time="65.00">
        <vehicle id="BUS1" eclass="HBEFA3/PC_G_EU4" CO2="2624.72" CO="164.78" HC="0.81" NOx="1.20" PMx="0.07" fuel="837.22" electricity="0.00" noise="55.94" route="bus_route" type="BUS" waiting="20.00" lane="166458245#1_0" pos="111.62" speed="0.00" angle="190.35" x="1952.83" y="2785.00"/>
        <vehicle id="BUS2" eclass="HBEFA3/PC_G_EU4" CO2="3687.79" CO="60.75" HC="0.36" NOx="1.46" PMx="0.06" fuel="1176.25" electricity="0.00" noise="63.40" route="bus_route" type="BUS" waiting="0.00" lane="166458245#0_0" pos="84.24" speed="9.07" angle="217.62" x="2099.22" y="3005.24"/>
    </timestep>
    <timestep time="66.00">
        <vehicle id="BUS1" eclass="HBEFA3/PC_G_EU4" CO2="2624.72" CO="164.78" HC="0.81" NOx="1.20" PMx="0.07" fuel="837.22" electricity="0.00" noise="55.94" route="bus_route" type="BUS" waiting="21.00" lane="166458245#1_0" pos="111.62" speed="0.00" angle="190.35" x="1952.83" y="2785.00"/>
        <vehicle id="BUS2" eclass="HBEFA3/PC_G_EU4" CO2="3878.35" CO="57.84" HC="0.35" NOx="1.53" PMx="0.06" fuel="1237.02" electricity="0.00" noise="63.90" route="bus_route" type="BUS" waiting="0.00" lane="166458245#0_0" pos="94.00" speed="9.76" angle="217.62" x="2093.25" y="2997.49"/>
    </timestep>
    <timestep time="67.00">
        <vehicle id="BUS1" eclass="HBEFA3/PC_G_EU4" CO2="2624.72" CO="164.78" HC="0.81" NOx="1.20" PMx="0.07" fuel="837.22" electricity="0.00" noise="55.94" route="bus_route" type="BUS" waiting="22.00" lane="166458245#1_0" pos="111.62" speed="0.00" angle="190.35" x="1952.83" y="2785.00"/>
        <vehicle id="BUS2" eclass="HBEFA3/PC_G_EU4" CO2="3770.39" CO="49.98" HC="0.31" NOx="1.47" PMx="0.05" fuel="1202.59" electricity="0.00" noise="63.97" route="bus_route" type="BUS" waiting="0.00" lane="166458245#0_0" pos="104.38" speed="10.37" angle="217.35" x="2086.95" y="2989.22"/>
    </timestep>
    <timestep time="68.00">
        <vehicle id="BUS1" eclass="HBEFA3/PC_G_EU4" CO2="2624.72" CO="164.78" HC="0.81" NOx="1.20" PMx="0.07" fuel="837.22" electricity="0.00" noise="55.94" route="bus_route" type="BUS" waiting="23.00" lane="166458245#1_0" pos="111.62" speed="0.00" angle="190.35" x="1952.83" y="2785.00"/>
        <vehicle id="BUS2" eclass="HBEFA3/PC_G_EU4" CO2="4095.46" CO="50.77" HC="0.33" NOx="1.60" PMx="0.06" fuel="1306.27" electricity="0.00" noise="64.62" route="bus_route" type="BUS" waiting="0.00" lane="166458245#0_0" pos="115.42" speed="11.05" angle="217.04" x="2080.29" y="2980.39"/>
    </timestep>
    <timestep time="69.00">
        <vehicle id="BUS1" eclass="HBEFA3/PC_G_EU4" CO2="2624.72" CO="164.78" HC="0.81" NOx="1.20" PMx="0.07" fuel="837.22" electricity="0.00" noise="55.94" route="bus_route" type="BUS" waiting="24.00" lane="166458245#1_0" pos="111.62" speed="0.00" angle="190.35" x="1952.83" y="2785.00"/>
        <vehicle id="BUS2" eclass="HBEFA3/PC_G_EU4" CO2="3913.58" CO="42.32" HC="0.28" NOx="1.50" PMx="0.06" fuel="1248.26" electricity="0.00" noise="64.64" route="bus_route" type="BUS" waiting="0.00" lane="166458245#0_0" pos="127.04" speed="11.62" angle="217.04" x="2073.27" y="2971.10"/>
    </timestep>
    <timestep time="70.00">
        <vehicle id="BUS1" eclass="HBEFA3/PC_G_EU4" CO2="2624.72" CO="164.78" HC="0.81" NOx="1.20" PMx="0.07" fuel="837.22" electricity="0.00" noise="55.94" route="bus_route" type="BUS" waiting="25.00" lane="166458245#1_0" pos="111.62" speed="0.00" angle="190.35" x="1952.83" y="2785.00"/>
        <vehicle id="BUS2" eclass="HBEFA3/PC_G_EU4" CO2="4541.56" CO="49.72" HC="0.33" NOx="1.78" PMx="0.07" fuel="1448.55" electricity="0.00" noise="65.57" route="bus_route" type="BUS" waiting="0.00" lane="166458245#0_0" pos="139.39" speed="12.34" angle="217.69" x="2065.71" y="2961.31"/>
    </timestep>
    <timestep time="71.00">
        <vehicle id="BUS1" eclass="HBEFA3/PC_G_EU4" CO2="2624.72" CO="164.78" HC="0.81" NOx="1.20" PMx="0.07" fuel="837.22" electricity="0.00" noise="55.94" route="bus_route" type="BUS" waiting="26.00" lane="166458245#1_0" pos="111.62" speed="0.00" angle="190.35" x="1952.83" y="2785.00"/>
        <vehicle id="BUS2" eclass="HBEFA3/PC_G_EU4" CO2="3897.56" CO="32.95" HC="0.24" NOx="1.47" PMx="0.05" fuel="1243.14" electricity="0.00" noise="65.16" route="bus_route" type="BUS" waiting="0.00" lane="166458245#0_0" pos="152.22" speed="12.83" angle="217.72" x="2057.85" y="2951.14"/>
    </timestep>
    <timestep time="72.00">
        <vehicle id="BUS1" eclass="HBEFA3/PC_G_EU4" CO2="2618.56" CO="157.13" HC="0.78" NOx="1.19" PMx="0.06" fuel="835.25" electricity="0.00" noise="57.99" route="bus_route" type="BUS" waiting="0.00" lane="166458245#1_0" pos="112.05" speed="0.43" angle="185.91" x="1953.26" y="2784.84"/>
        <vehicle id="BUS2" eclass="HBEFA3/PC_G_EU4" CO2="3988.05" CO="31.51" HC="0.24" NOx="1.50" PMx="0.06" fuel="1272.01" electricity="0.00" noise="65.47" route="bus_route" type="BUS" waiting="0.00" lane="166458245#0_0" pos="165.55" speed="13.32" angle="217.72" x="2049.68" y="2940.58"/>
    </timestep>
    <timestep time="73.00">
        <vehicle id="BUS1" eclass="HBEFA3/PC_G_EU4" CO2="2647.69" CO="148.21" HC="0.74" NOx="1.19" PMx="0.06" fuel="844.54" electricity="0.00" noise="58.77" route="bus_route" type="BUS" waiting="0.00" lane=":cluster_1779260093_1779260094_1779260095_1779260096_10_0" pos="0.42" speed="0.99" angle="179.58" x="1953.56" y="2784.32"/>
        <vehicle id="BUS2" eclass="HBEFA3/PC_G_EU4" CO2="4160.22" CO="31.84" HC="0.24" NOx="1.56" PMx="0.06" fuel="1326.92" electricity="0.00" noise="65.84" route="bus_route" type="BUS" waiting="0.00" lane="166458245#0_0" pos="179.38" speed="13.83" angle="214.71" x="2041.72" y="2929.24"/>
    </timestep>
    <timestep time="74.00">
        <vehicle id="BUS1" eclass="HBEFA3/PC_G_EU4" CO2="2664.44" CO="139.40" HC="0.70" NOx="1.18" PMx="0.06" fuel="849.88" electricity="0.00" noise="58.96" route="bus_route" type="BUS" waiting="0.00" lane=":cluster_1779260093_1779260094_1779260095_1779260096_10_0" pos="1.95" speed="1.54" angle="179.76" x="1952.59" y="2783.12"/>