<?xml version="1.0" encoding="UTF-8"?>

<!-- generated on 2024-04-29 01:36:05 by Eclipse SUMO sumo Version 1.19.0
<configuration xmlns:xsi="http://www.w3.org/2001/XMLSchema-instance" xsi:noNamespaceSchemaLocation="http://sumo.dlr.de/xsd/sumoConfiguration.xsd">

    <input>
        <net-file value="final.net.xml"/>
        <route-files value="Car.rou.xml"/>
    </input>

    <output>
        <tripinfo-output value="Case2_tripinfo_car.xml"/>
    </output>

    <time>
        <begin value="0"/>
        <end value="1000"/>
    </time>

    <processing>
        <ignore-route-errors value="True"/>
        <max-num-vehicles value="100"/>
    </processing>

</configuration>
-->

<tripinfos xmlns:xsi="http://www.w3.org/2001/XMLSchema-instance" xsi:noNamespaceSchemaLocation="http://sumo.dlr.de/xsd/tripinfo_file.xsd">
    <tripinfo id="CAR2" depart="50.00" departLane="166458245#0_0" departPos="5.10" departSpeed="0.00" departDelay="0.00" arrival="337.00" arrivalLane="166479007#3_1" arrivalPos="55.40" arrivalSpeed="20.57" duration="287.00" routeLength="2934.15" waitingTime="50.00" waitingCount="2" stopTime="0.00" timeLoss="166.14" rerouteNo="0" devices="tripinfo_CAR2" vType="CAR" speedFactor="0.94" vaporized=""/>
    <tripinfo id="CAR3" depart="75.00" departLane="166458245#0_0" departPos="5.10" departSpeed="0.00" departDelay="0.00" arrival="338.00" arrivalLane="166479007#3_1" arrivalPos="55.40" arrivalSpeed="20.22" duration="263.00" routeLength="2932.88" waitingTime="33.00" waitingCount="1" stopTime="0.00" timeLoss="149.58" rerouteNo="0" devices="tripinfo_CAR3" vType="CAR" speedFactor="1.01" vaporized=""/>
    <tripinfo id="CAR1" depart="10.00" departLane="166458245#0_0" departPos="5.10" departSpeed="0.00" departDelay="0.00" arrival="343.00" arrivalLane="166479007#3_1" arrivalPos="55.40" arrivalSpeed="19.38" duration="333.00" routeLength="2938.04" waitingTime="89.00" waitingCount="2" stopTime="0.00" timeLoss="224.74" rerouteNo="0" devices="tripinfo_CAR1" vType="CAR" speedFactor="1.06" vaporized=""/>
    <tripinfo id="CAR5" depart="115.00" departLane="166458245#0_0" departPos="5.10" departSpeed="0.00" departDelay="0.00" arrival="617.00" arrivalLane="166479007#3_1" arrivalPos="55.40" arrivalSpeed="19.37" duration="502.00" routeLength="2934.15" waitingTime="214.00" waitingCount="5" stopTime="0.00" timeLoss="390.83" rerouteNo="0" devices="tripinfo_CAR5" vType="CAR" speedFactor="1.03" vaporized=""/>
    <tripinfo id="CAR4" depart="100.00" departLane="166458245#0_0" departPos="5.10" departSpeed="0.00" departDelay="0.00" arrival="702.00" arrivalLane="166479007#3_1" arrivalPos="55.40" arrivalSpeed="19.99" duration="602.00" routeLength="2938.04" waitingTime="307.00" waitingCount="6" stopTime="0.00" timeLoss="496.64" rerouteNo="0" devices="tripinfo_CAR4" vType="CAR" speedFactor="1.08" vaporized=""/>
    <tripinfo id="CAR6" depart="135.00" departLane="166458245#0_0" departPos="5.10" departSpeed="0.00" departDelay="0.00" arrival="707.00" arrivalLane="166479007#3_1" arrivalPos="55.40" arrivalSpeed="20.39" duration="572.00" routeLength="2934.15" waitingTime="274.00" waitingCount="6" stopTime="0.00" timeLoss="435.52" rerouteNo="0" devices="tripinfo_CAR6" vType="CAR" speedFactor="0.83" vaporized=""/>
    <tripinfo id="CAR7" depart="150.00" departLane="166458245#0_0" departPos="5.10" departSpeed="0.00" departDelay="0.00" arrival="792.00" arrivalLane="166479007#3_1" arrivalPos="55.40" arrivalSpeed="19.80" duration="642.00" routeLength="2934.15" waitingTime="334.00" waitingCount="7" stopTime="0.00" timeLoss="533.91" rerouteNo="0" devices="tripinfo_CAR7" vType="CAR" speedFactor="1.05" vaporized=""/>
    <tripinfo id="CAR8" depart="183.00" departLane="166458245#0_0" departPos="5.10" departSpeed="0.00" departDelay="0.00" arrival="884.00" arrivalLane="166479007#3_1" arrivalPos="55.40" arrivalSpeed="19.86" duration="701.00" routeLength="2929.83" waitingTime="395.00" waitingCount="8" stopTime="0.00" timeLoss="573.12" rerouteNo="0" devices="tripinfo_CAR8" vType="CAR" speedFactor="0.89" vaporized=""/>
    <tripinfo id="CAR9" depart="200.00" departLane="166458245#0_0" departPos="5.10" departSpeed="0.00" departDelay="0.00" arrival="974.00" arrivalLane="166479007#3_1" arrivalPos="55.40" arrivalSpeed="19.96" duration="774.00" routeLength="2938.04" waitingTime="478.00" waitingCount="8" stopTime="0.00" timeLoss="651.87" rerouteNo="0" devices="tripinfo_CAR9" vType="CAR" speedFactor="0.94" vaporized=""/>
</tripinfos>
