<?xml version="1.0" encoding="UTF-8"?>

<!-- generated on 2024-04-29 11:29:01 by Eclipse SUMO sumo Version 1.19.0
<configuration xmlns:xsi="http://www.w3.org/2001/XMLSchema-instance" xsi:noNamespaceSchemaLocation="http://sumo.dlr.de/xsd/sumoConfiguration.xsd">

    <input>
        <net-file value="Case4.net.xml"/>
        <route-files value="BRTS.route.xml"/>
    </input>

    <output>
        <tripinfo-output value="Case4_tripinfo_BRTS.xml"/>
    </output>

    <time>
        <begin value="0"/>
        <end value="1000"/>
    </time>

    <processing>
        <ignore-route-errors value="True"/>
    </processing>

</configuration>
-->

<tripinfos xmlns:xsi="http://www.w3.org/2001/XMLSchema-instance" xsi:noNamespaceSchemaLocation="http://sumo.dlr.de/xsd/tripinfo_file.xsd">
    <tripinfo id="BUS1" depart="10.00" departLane="166458245#0_0" departPos="12.10" departSpeed="0.00" departDelay="0.00" arrival="378.00" arrivalLane="166479007#0_1" arrivalPos="27.35" arrivalSpeed="9.27" duration="368.00" routeLength="2668.70" waitingTime="115.00" waitingCount="4" stopTime="0.00" timeLoss="269.40" rerouteNo="0" devices="tripinfo_BUS1" vType="BUS" speedFactor="1.06" vaporized=""/>
    <tripinfo id="BUS3" depart="75.00" departLane="166458245#0_0" departPos="12.10" departSpeed="0.00" departDelay="0.00" arrival="485.00" arrivalLane="166479007#0_1" arrivalPos="27.35" arrivalSpeed="8.34" duration="410.00" routeLength="2669.97" waitingTime="168.00" waitingCount="4" stopTime="0.00" timeLoss="307.63" rerouteNo="0" devices="tripinfo_BUS3" vType="BUS" speedFactor="1.01" vaporized=""/>
    <tripinfo id="BUS2" depart="50.00" departLane="166458245#0_0" departPos="12.10" departSpeed="0.00" departDelay="0.00" arrival="591.00" arrivalLane="166479007#0_1" arrivalPos="27.35" arrivalSpeed="9.38" duration="541.00" routeLength="2660.49" waitingTime="261.00" waitingCount="6" stopTime="0.00" timeLoss="431.29" rerouteNo="0" devices="tripinfo_BUS2" vType="BUS" speedFactor="0.94" vaporized=""/>
    <tripinfo id="BUS4" depart="100.00" departLane="166458245#0_0" departPos="12.10" departSpeed="0.00" departDelay="0.00" arrival="696.00" arrivalLane="166479007#0_1" arrivalPos="27.35" arrivalSpeed="8.25" duration="596.00" routeLength="2660.49" waitingTime="327.00" waitingCount="6" stopTime="0.00" timeLoss="499.12" rerouteNo="0" devices="tripinfo_BUS4" vType="BUS" speedFactor="1.08" vaporized=""/>
    <tripinfo id="BUS5" depart="250.00" departLane="166458245#0_0" departPos="12.10" departSpeed="0.00" departDelay="0.00" arrival="802.00" arrivalLane="166479007#0_1" arrivalPos="27.35" arrivalSpeed="9.86" duration="552.00" routeLength="2668.70" waitingTime="304.00" waitingCount="5" stopTime="0.00" timeLoss="450.89" rerouteNo="0" devices="tripinfo_BUS5" vType="BUS" speedFactor="1.03" vaporized=""/>
    <tripinfo id="BUS6" depart="500.00" departLane="166458245#0_0" departPos="12.10" departSpeed="0.00" departDelay="0.00" arrival="908.00" arrivalLane="166479007#0_1" arrivalPos="27.35" arrivalSpeed="8.96" duration="408.00" routeLength="2668.70" waitingTime="159.00" waitingCount="4" stopTime="0.00" timeLoss="283.48" rerouteNo="0" devices="tripinfo_BUS6" vType="BUS" speedFactor="0.83" vaporized=""/>
</tripinfos>
