<?xml version="1.0" encoding="UTF-8"?>

<!-- generated on 2024-04-29 11:21:46 by Eclipse SUMO sumo Version 1.19.0
<configuration xmlns:xsi="http://www.w3.org/2001/XMLSchema-instance" xsi:noNamespaceSchemaLocation="http://sumo.dlr.de/xsd/sumoConfiguration.xsd">

    <input>
        <net-file value="Case4.net.xml"/>
        <route-files value="AMTS.rou.xml"/>
    </input>

    <output>
        <tripinfo-output value="Case4_tripinfo_AMTS.xml"/>
    </output>

    <time>
        <begin value="0"/>
        <end value="1000"/>
    </time>

    <processing>
        <ignore-route-errors value="True"/>
    </processing>

</configuration>
-->

<tripinfos xmlns:xsi="http://www.w3.org/2001/XMLSchema-instance" xsi:noNamespaceSchemaLocation="http://sumo.dlr.de/xsd/tripinfo_file.xsd">
    <tripinfo id="amts1" depart="10.00" departLane="166458245#0_0" departPos="12.10" departSpeed="0.00" departDelay="0.00" arrival="396.00" arrivalLane="166479007#3_1" arrivalPos="55.40" arrivalSpeed="20.26" duration="386.00" routeLength="2931.04" waitingTime="114.00" waitingCount="4" stopTime="0.00" timeLoss="278.65" rerouteNo="0" devices="tripinfo_amts1" vType="BUS1" speedFactor="1.06" vaporized=""/>
    <tripinfo id="amts2" depart="100.00" departLane="166458245#0_0" departPos="12.10" departSpeed="0.00" departDelay="0.00" arrival="504.00" arrivalLane="166479007#3_1" arrivalPos="55.40" arrivalSpeed="19.60" duration="404.00" routeLength="2931.04" waitingTime="130.00" waitingCount="4" stopTime="0.00" timeLoss="283.02" rerouteNo="0" devices="tripinfo_amts2" vType="BUS1" speedFactor="0.94" vaporized=""/>
    <tripinfo id="amts3" depart="250.00" departLane="166458245#0_0" departPos="12.10" departSpeed="0.00" departDelay="0.00" arrival="610.00" arrivalLane="166479007#3_1" arrivalPos="55.40" arrivalSpeed="20.17" duration="360.00" routeLength="2931.04" waitingTime="106.00" waitingCount="3" stopTime="0.00" timeLoss="246.81" rerouteNo="0" devices="tripinfo_amts3" vType="BUS1" speedFactor="1.01" vaporized=""/>
    <tripinfo id="amts4" depart="300.00" departLane="166458245#0_0" departPos="12.10" departSpeed="0.00" departDelay="0.00" arrival="713.00" arrivalLane="166479007#3_1" arrivalPos="55.40" arrivalSpeed="20.68" duration="413.00" routeLength="2922.83" waitingTime="171.00" waitingCount="3" stopTime="0.00" timeLoss="306.83" rerouteNo="0" devices="tripinfo_amts4" vType="BUS1" speedFactor="1.08" vaporized=""/>
    <tripinfo id="amts5" depart="350.00" departLane="166458245#0_0" departPos="12.10" departSpeed="0.00" departDelay="0.00" arrival="820.00" arrivalLane="166479007#3_1" arrivalPos="55.40" arrivalSpeed="19.94" duration="470.00" routeLength="2931.04" waitingTime="232.00" waitingCount="4" stopTime="0.00" timeLoss="360.31" rerouteNo="0" devices="tripinfo_amts5" vType="BUS1" speedFactor="1.03" vaporized=""/>
    <tripinfo id="amts6" depart="410.00" departLane="166458245#0_0" departPos="12.10" departSpeed="0.00" departDelay="0.00" arrival="927.00" arrivalLane="166479007#3_1" arrivalPos="55.40" arrivalSpeed="19.63" duration="517.00" routeLength="2931.04" waitingTime="247.00" waitingCount="4" stopTime="0.00" timeLoss="380.91" rerouteNo="0" devices="tripinfo_amts6" vType="BUS1" speedFactor="0.83" vaporized=""/>
</tripinfos>
