<?xml version="1.0" encoding="UTF-8"?>

<!-- generated on 2024-07-11 10:53:35 by Eclipse SUMO sumo Version 1.19.0
<configuration xmlns:xsi="http://www.w3.org/2001/XMLSchema-instance" xsi:noNamespaceSchemaLocation="http://sumo.dlr.de/xsd/sumoConfiguration.xsd">

    <input>
        <net-file value="Case4.net.xml"/>
        <route-files value="BRTS.rou.xml"/>
    </input>

    <output>
        <tripinfo-output value="BRTS9tripinfo.xml"/>
    </output>

    <time>
        <begin value="0"/>
        <end value="1000"/>
    </time>

    <processing>
        <ignore-route-errors value="True"/>
    </processing>

</configuration>
-->

<tripinfos xmlns:xsi="http://www.w3.org/2001/XMLSchema-instance" xsi:noNamespaceSchemaLocation="http://sumo.dlr.de/xsd/tripinfo_file.xsd">
    <tripinfo id="BUS1" depart="50.00" departLane="166458245#0_0" departPos="12.10" departSpeed="0.00" departDelay="0.00" arrival="605.00" arrivalLane="166479007#0_1" arrivalPos="27.35" arrivalSpeed="9.67" duration="555.00" routeLength="2666.13" waitingTime="313.00" waitingCount="3" stopTime="0.00" timeLoss="457.70" rerouteNo="0" devices="tripinfo_BUS1" vType="BUS" speedFactor="1.06" vaporized=""/>
    <tripinfo id="BUS2" depart="100.00" departLane="166458245#0_0" departPos="12.10" departSpeed="0.00" departDelay="0.00" arrival="895.00" arrivalLane="166479007#0_1" arrivalPos="27.35" arrivalSpeed="9.43" duration="795.00" routeLength="2644.92" waitingTime="563.00" waitingCount="5" stopTime="0.00" timeLoss="687.44" rerouteNo="0" devices="tripinfo_BUS2" vType="BUS" speedFactor="0.94" vaporized=""/>
</tripinfos>
