<?xml version="1.0" encoding="UTF-8"?>

<!-- generated on 2024-07-11 10:54:26 by Eclipse SUMO sumo Version 1.19.0
<configuration xmlns:xsi="http://www.w3.org/2001/XMLSchema-instance" xsi:noNamespaceSchemaLocation="http://sumo.dlr.de/xsd/sumoConfiguration.xsd">

    <input>
        <net-file value="Case4.net.xml"/>
        <route-files value="BRTS.rou.xml"/>
    </input>

    <output>
        <tripinfo-output value="BRTS9_1tripinfo.xml"/>
    </output>

    <time>
        <begin value="0"/>
        <end value="1000"/>
    </time>

    <processing>
        <ignore-route-errors value="True"/>
    </processing>

</configuration>
-->

<tripinfos xmlns:xsi="http://www.w3.org/2001/XMLSchema-instance" xsi:noNamespaceSchemaLocation="http://sumo.dlr.de/xsd/tripinfo_file.xsd">
    <tripinfo id="BUS3" depart="180.00" departLane="166458245#0_0" departPos="12.10" departSpeed="0.00" departDelay="0.00" arrival="983.00" arrivalLane="166479007#0_1" arrivalPos="27.35" arrivalSpeed="9.53" duration="803.00" routeLength="2648.45" waitingTime="560.00" waitingCount="5" stopTime="0.00" timeLoss="708.36" rerouteNo="0" devices="tripinfo_BUS3" vType="BUS" speedFactor="1.06" vaporized=""/>
</tripinfos>
