<?xml version="1.0" encoding="UTF-8"?>

<!-- generated on 2024-05-01 10:00:31 by Eclipse SUMO sumo Version 1.19.0
<configuration xmlns:xsi="http://www.w3.org/2001/XMLSchema-instance" xsi:noNamespaceSchemaLocation="http://sumo.dlr.de/xsd/sumoConfiguration.xsd">

    <input>
        <net-file value="Case2_4_BRTS.net.xml"/>
        <route-files value="BRTS.route.xml"/>
    </input>

    <output>
        <tripinfo-output value="Case3_tripinformation_brts.xml"/>
    </output>

    <time>
        <begin value="0"/>
        <end value="1000"/>
    </time>

    <processing>
        <ignore-route-errors value="True"/>
    </processing>

</configuration>
-->

<tripinfos xmlns:xsi="http://www.w3.org/2001/XMLSchema-instance" xsi:noNamespaceSchemaLocation="http://sumo.dlr.de/xsd/tripinfo_file.xsd">
    <tripinfo id="BUS1" depart="50.00" departLane="166458245#0_0" departPos="12.10" departSpeed="0.00" departDelay="0.00" arrival="331.00" arrivalLane="166479007#0_1" arrivalPos="27.35" arrivalSpeed="9.47" duration="281.00" routeLength="2671.50" waitingTime="58.00" waitingCount="2" stopTime="0.00" timeLoss="183.29" rerouteNo="0" devices="tripinfo_BUS1" vType="BUS" speedFactor="1.06" vaporized=""/>
    <tripinfo id="BUS3" depart="180.00" departLane="166458245#0_0" departPos="12.10" departSpeed="0.00" departDelay="0.00" arrival="470.00" arrivalLane="166479007#0_1" arrivalPos="27.35" arrivalSpeed="9.14" duration="290.00" routeLength="2671.50" waitingTime="64.00" waitingCount="2" stopTime="0.00" timeLoss="187.75" rerouteNo="0" devices="tripinfo_BUS3" vType="BUS" speedFactor="1.01" vaporized=""/>
    <tripinfo id="BUS2" depart="100.00" departLane="166458245#0_0" departPos="12.10" departSpeed="0.00" departDelay="0.00" arrival="609.00" arrivalLane="166479007#0_1" arrivalPos="27.35" arrivalSpeed="7.96" duration="509.00" routeLength="2671.50" waitingTime="254.00" waitingCount="5" stopTime="0.00" timeLoss="398.64" rerouteNo="0" devices="tripinfo_BUS2" vType="BUS" speedFactor="0.94" vaporized=""/>
    <tripinfo id="BUS4" depart="290.00" departLane="166458245#0_0" departPos="12.10" departSpeed="0.00" departDelay="0.00" arrival="742.00" arrivalLane="166479007#0_1" arrivalPos="27.35" arrivalSpeed="9.94" duration="452.00" routeLength="2671.50" waitingTime="219.00" waitingCount="3" stopTime="0.00" timeLoss="356.00" rerouteNo="0" devices="tripinfo_BUS4" vType="BUS" speedFactor="1.08" vaporized=""/>
    <tripinfo id="BUS5" depart="400.00" departLane="166458245#0_0" departPos="12.10" departSpeed="0.00" departDelay="0.00" arrival="878.00" arrivalLane="166479007#0_1" arrivalPos="27.35" arrivalSpeed="8.90" duration="478.00" routeLength="2671.50" waitingTime="236.00" waitingCount="4" stopTime="0.00" timeLoss="377.00" rerouteNo="0" devices="tripinfo_BUS5" vType="BUS" speedFactor="1.03" vaporized=""/>
</tripinfos>
