<?xml version="1.0" encoding="UTF-8"?>

<!-- generated on 2024-04-21 01:52:45 by Eclipse SUMO sumo Version 1.19.0
<configuration xmlns:xsi="http://www.w3.org/2001/XMLSchema-instance" xsi:noNamespaceSchemaLocation="http://sumo.dlr.de/xsd/sumoConfiguration.xsd">

    <input>
        <net-file value="final.net.xml"/>
        <route-files value="BRTS.route.xml"/>
    </input>

    <output>
        <emission-output value="Case3_BRTS_emissions.xml"/>
    </output>

    <time>
        <begin value="0"/>
        <end value="1000"/>
    </time>

    <processing>
        <ignore-route-errors value="True"/>
        <max-num-vehicles value="3"/>
    </processing>

    <emissions>
        <device.emissions.probability value="0.10"/>
    </emissions>

</configuration>
-->

<emission-export xmlns:xsi="http://www.w3.org/2001/XMLSchema-instance" xsi:noNamespaceSchemaLocation="http://sumo.dlr.de/xsd/emission_file.xsd">
    <timestep time="0.00"/>
    <timestep time="1.00"/>
    <timestep time="2.00"/>
    <timestep time="3.00"/>
    <timestep time="4.00"/>
    <timestep time="5.00"/>
    <timestep time="6.00"/>
    <timestep time="7.00"/>
    <timestep time="8.00"/>
    <timestep time="9.00"/>
    <timestep time="10.00"/>
    <timestep time="11.00"/>
    <timestep time="12.00"/>
    <timestep time="13.00"/>
    <timestep time="14.00"/>
    <timestep time="15.00"/>
    <timestep time="16.00"/>
    <timestep time="17.00"/>
    <timestep time="18.00"/>
    <timestep time="19.00"/>
    <timestep time="20.00"/>
    <timestep time="21.00"/>
    <timestep time="22.00"/>
    <timestep time="23.00"/>
    <timestep time="24.00"/>
    <timestep time="25.00"/>
    <timestep time="26.00"/>
    <timestep time="27.00"/>
    <timestep time="28.00"/>
    <timestep time="29.00"/>
    <timestep time="30.00"/>
    <timestep time="31.00"/>
    <timestep time="32.00"/>
    <timestep time="33.00"/>
    <timestep time="34.00"/>
    <timestep time="35.00"/>
    <timestep time="36.00"/>
    <timestep time="37.00"/>
    <timestep time="38.00"/>
    <timestep time="39.00"/>
    <timestep time="40.00"/>
    <timestep time="41.00"/>
    <timestep time="42.00"/>
    <timestep time="43.00"/>
    <timestep time="44.00"/>
    <timestep time="45.00"/>
    <timestep time="46.00"/>
    <timestep time="47.00"/>
    <timestep time="48.00"/>
    <timestep time="49.00"/>
    <timestep time="50.00"/>
    <timestep time="51.00"/>
    <timestep time="52.00"/>
    <timestep time="53.00"/>
    <timestep time="54.00"/>
    <timestep time="55.00"/>
    <timestep time="56.00"/>
    <timestep time="57.00"/>
    <timestep time="58.00"/>
    <timestep time="59.00"/>
    <timestep time="60.00"/>
    <timestep time="61.00"/>
    <timestep time="62.00"/>
    <timestep time="63.00"/>
    <timestep time="64.00"/>
    <timestep time="65.00"/>
    <timestep time="66.00"/>
    <timestep time="67.00"/>
    <timestep time="68.00"/>
    <timestep time="69.00"/>
    <timestep time="70.00"/>
    <timestep time="71.00"/>
    <timestep time="72.00"/>
    <timestep time="73.00"/>
    <timestep time="74.00"/>
    <timestep time="75.00">
        <vehicle id="BUS3" eclass="HBEFA3/PC_G_EU4" CO2="2624.72" CO="164.78" HC="0.81" NOx="1.20" PMx="0.07" fuel="837.22" electricity="0.00" noise="55.94" route="bus_route" type="BUS" waiting="0.00" lane="166458245#0_0" pos="12.10" speed="0.00" angle="226.74" x="2146.22" y="3060.00"/>
    </timestep>
    <timestep time="76.00">
        <vehicle id="BUS3" eclass="HBEFA3/PC_G_EU4" CO2="2664.31" CO="153.51" HC="0.76" NOx="1.20" PMx="0.06" fuel="849.84" electricity="0.00" noise="59.26" route="bus_route" type="BUS" waiting="0.00" lane="166458245#0_0" pos="12.80" speed="0.70" angle="226.74" x="2145.71" y="3059.53"/>
    </timestep>
    <timestep time="77.00">
        <vehicle id="BUS3" eclass="HBEFA3/PC_G_EU4" CO2="2696.62" CO="143.06" HC="0.71" NOx="1.20" PMx="0.06" fuel="860.15" electricity="0.00" noise="59.37" route="bus_route" type="BUS" waiting="0.00" lane="166458245#0_0" pos="14.15" speed="1.36" angle="226.74" x="2144.72" y="3058.59"/>
    </timestep>
    <timestep time="78.00">
        <vehicle id="BUS3" eclass="HBEFA3/PC_G_EU4" CO2="2645.74" CO="134.07" HC="0.67" NOx="1.16" PMx="0.06" fuel="843.92" electricity="0.00" noise="58.80" route="bus_route" type="BUS" waiting="0.00" lane="166458245#0_0" pos="15.99" speed="1.84" angle="226.74" x="2143.38" y="3057.33"/>
    </timestep>
    <timestep time="79.00">
        <vehicle id="BUS3" eclass="HBEFA3/PC_G_EU4" CO2="2612.84" CO="126.86" HC="0.64" NOx="1.14" PMx="0.05" fuel="833.42" electricity="0.00" noise="58.65" route="bus_route" type="BUS" waiting="0.00" lane="166458245#0_0" pos="18.24" speed="2.25" angle="226.74" x="2141.74" y="3055.78"/>
    </timestep>
    <timestep time="80.00">
        <vehicle id="BUS3" eclass="HBEFA3/PC_G_EU4" CO2="2824.95" CO="120.79" HC="0.61" NOx="1.22" PMx="0.06" fuel="901.07" electricity="0.00" noise="60.09" route="bus_route" type="BUS" waiting="0.00" lane="166458245#0_0" pos="21.17" speed="2.92" angle="226.74" x="2139.61" y="3053.78"/>
    </timestep>
    <timestep time="81.00">
        <vehicle id="BUS3" eclass="HBEFA3/PC_G_EU4" CO2="2801.05" CO="111.53" HC="0.57" NOx="1.19" PMx="0.05" fuel="893.44" electricity="0.00" noise="59.98" route="bus_route" type="BUS" waiting="0.00" lane="166458245#0_0" pos="24.68" speed="3.51" angle="226.37" x="2137.10" y="3051.31"/>
    </timestep>
    <timestep time="82.00">
        <vehicle id="BUS3" eclass="HBEFA3/PC_G_EU4" CO2="3041.15" CO="105.72" HC="0.55" NOx="1.28" PMx="0.06" fuel="970.02" electricity="0.00" noise="61.02" route="bus_route" type="BUS" waiting="0.00" lane="166458245#0_0" pos="28.93" speed="4.25" angle="224.32" x="2134.31" y="3048.10"/>
    </timestep>
    <timestep time="83.00">
        <vehicle id="BUS3" eclass="HBEFA3/PC_G_EU4" CO2="3018.97" CO="96.16" HC="0.51" NOx="1.26" PMx="0.05" fuel="962.94" electricity="0.00" noise="60.98" route="bus_route" type="BUS" waiting="0.00" lane="166458245#0_0" pos="33.84" speed="4.91" angle="221.96" x="2131.08" y="3044.38"/>
    </timestep>
    <timestep time="84.00">
        <vehicle id="BUS3" eclass="HBEFA3/PC_G_EU4" CO2="2873.61" CO="86.34" HC="0.46" NOx="1.17" PMx="0.05" fuel="916.58" electricity="0.00" noise="60.65" route="bus_route" type="BUS" waiting="0.00" lane="166458245#0_0" pos="39.26" speed="5.42" angle="220.97" x="2127.52" y="3040.28"/>
    </timestep>
    <timestep time="85.00">
        <vehicle id="BUS3" eclass="HBEFA3/PC_G_EU4" CO2="2941.99" CO="80.99" HC="0.44" NOx="1.19" PMx="0.05" fuel="938.39" electricity="0.00" noise="60.99" route="bus_route" type="BUS" waiting="0.00" lane="166458245#0_0" pos="45.21" speed="5.95" angle="220.97" x="2123.61" y="3035.78"/>
    </timestep>
    <timestep time="86.00">
        <vehicle id="BUS3" eclass="HBEFA3/PC_G_EU4" CO2="3454.37" CO="82.00" HC="0.45" NOx="1.41" PMx="0.06" fuel="1101.81" electricity="0.00" noise="62.40" route="bus_route" type="BUS" waiting="0.00" lane="166458245#0_0" pos="51.93" speed="6.72" angle="220.97" x="2119.20" y="3030.70"/>
    </timestep>
    <timestep time="87.00">
        <vehicle id="BUS3" eclass="HBEFA3/PC_G_EU4" CO2="3630.33" CO="76.40" HC="0.43" NOx="1.48" PMx="0.06" fuel="1157.93" electricity="0.00" noise="62.91" route="bus_route" type="BUS" waiting="0.00" lane="166458245#0_0" pos="59.43" speed="7.50" angle="220.24" x="2114.39" y="3024.93"/>
    </timestep>
    <timestep time="88.00">
        <vehicle id="BUS3" eclass="HBEFA3/PC_G_EU4" CO2="2987.53" CO="58.29" HC="0.33" NOx="1.16" PMx="0.04" fuel="952.91" electricity="0.00" noise="61.83" route="bus_route" type="BUS" waiting="0.00" lane="166458245#0_0" pos="67.36" speed="7.94" angle="218.02" x="2109.54" y="3018.63"/>
    </timestep>
    <timestep time="89.00">
        <vehicle id="BUS3" eclass="HBEFA3/PC_G_EU4" CO2="3811.96" CO="67.12" HC="0.39" NOx="1.53" PMx="0.06" fuel="1215.85" electricity="0.00" noise="63.50" route="bus_route" type="BUS" waiting="0.00" lane="166458245#0_0" pos="76.06" speed="8.70" angle="217.62" x="2104.22" y="3011.73"/>
    </timestep>
    <timestep time="90.00">
        <vehicle id="BUS3" eclass="HBEFA3/PC_G_EU4" CO2="3490.46" CO="54.63" HC="0.33" NOx="1.36" PMx="0.05" fuel="1113.31" electricity="0.00" noise="63.17" route="bus_route" type="BUS" waiting="0.00" lane="166458245#0_0" pos="85.33" speed="9.27" angle="217.62" x="2098.55" y="3004.37"/>
    </timestep>
    <timestep time="91.00">
        <vehicle id="BUS3" eclass="HBEFA3/PC_G_EU4" CO2="3487.03" CO="49.33" HC="0.30" NOx="1.35" PMx="0.05" fuel="1112.21" electricity="0.00" noise="63.38" route="bus_route" type="BUS" waiting="0.00" lane="166458245#0_0" pos="95.14" speed="9.81" angle="217.62" x="2092.55" y="2996.59"/>
    </timestep>
    <timestep time="92.00">
        <vehicle id="BUS3" eclass="HBEFA3/PC_G_EU4" CO2="3293.41" CO="41.26" HC="0.26" NOx="1.25" PMx="0.04" fuel="1050.46" electricity="0.00" noise="63.32" route="bus_route" type="BUS" waiting="0.00" lane="166458245#0_0" pos="105.39" speed="10.25" angle="217.30" x="2086.34" y="2988.41"/>
    </timestep>
    <timestep time="93.00">
        <vehicle id="BUS3" eclass="HBEFA3/PC_G_EU4" CO2="3793.71" CO="46.37" HC="0.30" NOx="1.47" PMx="0.05" fuel="1210.03" electricity="0.00" noise="64.18" route="bus_route" type="BUS" waiting="0.00" lane="166458245#0_0" pos="116.23" speed="10.84" angle="217.04" x="2079.80" y="2979.75"/>
    </timestep>
    <timestep time="94.00">
        <vehicle id="BUS3" eclass="HBEFA3/PC_G_EU4" CO2="3521.04" CO="36.86" HC="0.25" NOx="1.33" PMx="0.05" fuel="1123.06" electricity="0.00" noise="64.08" route="bus_route" type="BUS" waiting="0.00" lane="166458245#0_0" pos="127.53" speed="11.30" angle="217.04" x="2072.98" y="2970.71"/>
    </timestep>
    <timestep time="95.00">
        <vehicle id="BUS3" eclass="HBEFA3/PC_G_EU4" CO2="3530.51" CO="33.51" HC="0.23" NOx="1.32" PMx="0.05" fuel="1126.08" electricity="0.00" noise="64.30" route="bus_route" type="BUS" waiting="0.00" lane="166458245#0_0" pos="139.26" speed="11.74" angle="217.69" x="2065.79" y="2961.41"/>
    </timestep>
    <timestep time="96.00">
        <vehicle id="BUS3" eclass="HBEFA3/PC_G_EU4" CO2="4592.76" CO="49.88" HC="0.33" NOx="1.80" PMx="0.07" fuel="1464.88" electricity="0.00" noise="65.67" route="bus_route" type="BUS" waiting="0.00" lane="166458245#0_0" pos="151.73" speed="12.47" angle="217.72" x="2058.15" y="2951.53"/>
    </timestep>
    <timestep time="97.00">
        <vehicle id="BUS3" eclass="HBEFA3/PC_G_EU4" CO2="4961.82" CO="52.09" HC="0.35" NOx="1.96" PMx="0.08" fuel="1582.59" electricity="0.00" noise="66.29" route="bus_route" type="BUS" waiting="0.00" lane="166458245#0_0" pos="164.97" speed="13.24" angle="217.72" x="2050.03" y="2941.03"/>
    </timestep>
    <timestep time="98.00">
        <vehicle id="BUS3" eclass="HBEFA3/PC_G_EU4" CO2="4111.88" CO="31.40" HC="0.24" NOx="1.54" PMx="0.06" fuel="1311.50" electricity="0.00" noise="65.76" route="bus_route" type="BUS" waiting="0.00" lane="166458245#0_0" pos="178.71" speed="13.74" angle="214.82" x="2042.10" y="2929.78"/>
    </timestep>
    <timestep time="99.00">
        <vehicle id="BUS3" eclass="HBEFA3/PC_G_EU4" CO2="5177.49" CO="49.00" HC="0.35" NOx="2.03" PMx="0.09" fuel="1651.37" electricity="0.00" noise="66.93" route="bus_route" type="BUS" waiting="0.00" lane="166458245#0_0" pos="193.19" speed="14.48" angle="214.78" x="2033.83" y="2917.87"/>
    </timestep>
    <timestep time="100.00">
        <vehicle id="BUS3" eclass="HBEFA3/PC_G_EU4" CO2="4557.75" CO="33.35" HC="0.26" NOx="1.72" PMx="0.07" fuel="1453.71" electricity="0.00" noise="66.68" route="bus_route" type="BUS" waiting="0.00" lane="166458245#0_0" pos="208.21" speed="15.02" angle="214.70" x="2025.26" y="2905.50"/>
    </timestep>
    <timestep time="101.00">
        <vehicle id="BUS3" eclass="HBEFA3/PC_G_EU4" CO2="4855.02" CO="36.66" HC="0.28" NOx="1.85" PMx="0.08" fuel="1548.52" electricity="0.00" noise="67.14" route="bus_route" type="BUS" waiting="0.00" lane="166458245#0_0" pos="223.81" speed="15.60" angle="211.70" x="2017.05" y="2892.21"/>
    </timestep>
    <timestep time="102.00">
        <vehicle id="BUS3" eclass="HBEFA3/PC_G_EU4" CO2="5923.05" CO="55.29" HC="0.39" NOx="2.33" PMx="0.10" fuel="1889.16" electricity="0.00" noise="68.18" route="bus_route" type="BUS" waiting="0.00" lane="166458245#1_0" pos="3.88" speed="16.37" angle="211.70" x="2008.34" y="2878.11"/>
    </timestep>
    <timestep time="103.00">
        <vehicle id="BUS3" eclass="HBEFA3/PC_G_EU4" CO2="4667.66" CO="27.70" HC="0.24" NOx="1.73" PMx="0.07" fuel="1488.76" electricity="0.00" noise="67.59" route="bus_route" type="BUS" waiting="0.00" lane="166458245#1_0" pos="20.71" speed="16.83" angle="211.60" x="1999.08" y="2863.07"/>
    </timestep>
    <timestep time="104.00">
        <vehicle id="BUS3" eclass="HBEFA3/PC_G_EU4" CO2="6142.12" CO="55.63" HC="0.40" NOx="2.41" PMx="0.11" fuel="1959.04" electricity="0.00" noise="68.76" route="bus_route" type="BUS" waiting="0.00" lane="166458245#1_0" pos="38.28" speed="17.57" angle="211.57" x="1989.42" y="2847.36"/>
    </timestep>
    <timestep time="105.00">
        <vehicle id="BUS3" eclass="HBEFA3/PC_G_EU4" CO2="4898.01" CO="28.77" HC="0.25" NOx="1.81" PMx="0.08" fuel="1562.23" electricity="0.00" noise="68.26" route="bus_route" type="BUS" waiting="0.00" lane="166458245#1_0" pos="56.28" speed="18.01" angle="211.23" x="1979.61" y="2831.21"/>
    </timestep>
    <timestep time="106.00">
        <vehicle id="BUS3" eclass="HBEFA3/PC_G_EU4" CO2="6422.53" CO="58.50" HC="0.42" NOx="2.51" PMx="0.12" fuel="2048.47" electricity="0.00" noise="69.36" route="bus_route" type="BUS" waiting="0.00" lane="166458245#1_0" pos="75.00" speed="18.72" angle="211.23" x="1969.43" y="2814.41"/>
    </timestep>
    <timestep time="107.00">
        <vehicle id="BUS3" eclass="HBEFA3/PC_G_EU4" CO2="0.00" CO="0.00" HC="0.00" NOx="0.00" PMx="0.00" fuel="0.00" electricity="0.00" noise="64.62" route="bus_route" type="BUS" waiting="0.00" lane="166458245#1_0" pos="91.98" speed="16.97" angle="215.76" x="1959.06" y="2799.92"/>
    </timestep>
    <timestep time="108.00">
        <vehicle id="BUS3" eclass="HBEFA3/PC_G_EU4" CO2="0.00" CO="0.00" HC="0.00" NOx="0.00" PMx="0.00" fuel="0.00" electricity="0.00" noise="60.20" route="bus_route" type="BUS" waiting="0.00" lane="166458245#1_0" pos="104.68" speed="12.70" angle="215.76" x="1951.27" y="2789.10"/>
    </timestep>
    <timestep time="109.00">
        <vehicle id="BUS3" eclass="HBEFA3/PC_G_EU4" CO2="0.00" CO="0.00" HC="0.00" NOx="0.00" PMx="0.00" fuel="0.00" electricity="0.00" noise="54.52" route="bus_route" type="BUS" waiting="0.00" lane=":cluster_1779260093_1779260094_1779260095_1779260096_10_0" pos="0.26" speed="8.20" angle="179.56" x="1953.65" y="2784.44"/>
    </timestep>
    <timestep time="110.00">
        <vehicle id="BUS3" eclass="HBEFA3/PC_G_EU4" CO2="1955.33" CO="34.79" HC="0.20" NOx="0.67" PMx="0.01" fuel="623.69" electricity="0.00" noise="60.23" route="bus_route" type="BUS" waiting="0.00" lane=":cluster_1779260093_1779260094_1779260095_1779260096_10_0" pos="8.40" speed="8.14" angle="192.58" x="1948.53" y="2778.11"/>
    </timestep>
    <timestep time="111.00">
        <vehicle id="BUS3" eclass="HBEFA3/PC_G_EU4" CO2="2551.83" CO="44.77" HC="0.26" NOx="0.95" PMx="0.03" fuel="813.94" electricity="0.00" noise="61.30" route="bus_route" type="BUS" waiting="0.00" lane="166479614_0" pos="4.12" speed="8.35" angle="208.19" x="1945.35" y="2770.74"/>
    </timestep>
    <timestep time="112.00">
        <vehicle id="BUS3" eclass="HBEFA3/PC_G_EU4" CO2="3456.36" CO="57.28" HC="0.34" NOx="1.36" PMx="0.05" fuel="1102.43" electricity="0.00" noise="63.00" route="bus_route" type="BUS" waiting="0.00" lane="166479614_0" pos="13.06" speed="8.94" angle="187.07" x="1944.25" y="2761.87"/>
    </timestep>
    <timestep time="113.00">
        <vehicle id="BUS3" eclass="HBEFA3/PC_G_EU4" CO2="3225.11" CO="47.91" HC="0.29" NOx="1.24" PMx="0.04" fuel="1028.68" electricity="0.00" noise="62.84" route="bus_route" type="BUS" waiting="0.00" lane="166479614_0" pos="22.46" speed="9.40" angle="190.07" x="1942.48" y="2752.67"/>
    </timestep>
    <timestep time="114.00">
        <vehicle id="BUS3" eclass="HBEFA3/PC_G_EU4" CO2="3543.02" CO="49.16" HC="0.30" NOx="1.37" PMx="0.05" fuel="1130.07" electricity="0.00" noise="63.51" route="bus_route" type="BUS" waiting="0.00" lane="166479614_0" pos="32.41" speed="9.95" angle="195.86" x="1939.76" y="2743.11"/>
    </timestep>
    <timestep time="115.00">
        <vehicle id="BUS3" eclass="HBEFA3/PC_G_EU4" CO2="4299.30" CO="57.74" HC="0.36" NOx="1.71" PMx="0.07" fuel="1371.28" electricity="0.00" noise="64.76" route="bus_route" type="BUS" waiting="0.00" lane="166479614_0" pos="43.13" speed="10.73" angle="195.86" x="1936.83" y="2732.80"/>
    </timestep>
    <timestep time="116.00">
        <vehicle id="BUS3" eclass="HBEFA3/PC_G_EU4" CO2="4051.40" CO="47.25" HC="0.31" NOx="1.58" PMx="0.06" fuel="1292.21" electricity="0.00" noise="64.69" route="bus_route" type="BUS" waiting="0.00" lane="166479614_0" pos="54.50" speed="11.36" angle="195.86" x="1933.73" y="2721.87"/>
    </timestep>
    <timestep time="117.00">
        <vehicle id="BUS3" eclass="HBEFA3/PC_G_EU4" CO2="3519.98" CO="32.84" HC="0.23" NOx="1.31" PMx="0.05" fuel="1122.72" electricity="0.00" noise="64.31" route="bus_route" type="BUS" waiting="0.00" lane="166479614_0" pos="66.29" speed="11.80" angle="195.86" x="1930.51" y="2710.53"/>
    </timestep>
    <timestep time="118.00">
        <vehicle id="BUS3" eclass="HBEFA3/PC_G_EU4" CO2="4088.95" CO="40.17" HC="0.28" NOx="1.57" PMx="0.06" fuel="1304.19" electricity="0.00" noise="65.13" route="bus_route" type="BUS" waiting="0.00" lane="166479614_0" pos="78.67" speed="12.37" angle="195.30" x="1927.24" y="2698.61"/>
    </timestep>
    <timestep time="119.00">
        <vehicle id="BUS3" eclass="HBEFA3/PC_G_EU4" CO2="3936.67" CO="33.47" HC="0.24" NOx="1.48" PMx="0.05" fuel="1255.62" electricity="0.00" noise="65.22" route="bus_route" type="BUS" waiting="0.00" lane="166479614_0" pos="91.54" speed="12.88" angle="191.38" x="1924.70" y="2685.99"/>
    </timestep>
    <timestep time="120.00">
        <vehicle id="BUS3" eclass="HBEFA3/PC_G_EU4" CO2="4177.92" CO="34.83" HC="0.26" NOx="1.58" PMx="0.06" fuel="1332.57" electricity="0.00" noise="65.67" route="bus_route" type="BUS" waiting="0.00" lane="166479614_0" pos="104.96" speed="13.41" angle="191.38" x="1922.06" y="2672.85"/>
    </timestep>
    <timestep time="121.00">
        <vehicle id="BUS3" eclass="HBEFA3/PC_G_EU4" CO2="4107.28" CO="30.32" HC="0.23" NOx="1.54" PMx="0.06" fuel="1310.03" electricity="0.00" noise="65.84" route="bus_route" type="BUS" waiting="0.00" lane="166479614_0" pos="118.86" speed="13.90" angle="190.81" x="1919.43" y="2659.21"/>
    </timestep>
    <timestep time="122.00">
        <vehicle id="BUS3" eclass="HBEFA3/PC_G_EU4" CO2="5090.77" CO="46.50" HC="0.33" NOx="1.98" PMx="0.08" fuel="1623.71" electricity="0.00" noise="66.91" route="bus_route" type="BUS" waiting="0.00" lane="166479614_0" pos="133.47" speed="14.61" angle="189.54" x="1917.01" y="2644.81"/>
    </timestep>
    <timestep time="123.00">
        <vehicle id="BUS3" eclass="HBEFA3/PC_G_EU4" CO2="4572.07" CO="33.02" HC="0.26" NOx="1.73" PMx="0.07" fuel="1458.28" electricity="0.00" noise="66.75" route="bus_route" type="BUS" waiting="0.00" lane="166479614_0" pos="148.61" speed="15.14" angle="189.35" x="1914.55" y="2629.88"/>
    </timestep>
    <timestep time="124.00">
        <vehicle id="BUS3" eclass="HBEFA3/PC_G_EU4" CO2="4222.72" CO="23.78" HC="0.21" NOx="1.55" PMx="0.06" fuel="1346.85" electricity="0.00" noise="66.71" route="bus_route" type="BUS" waiting="0.00" lane="166479614_0" pos="164.17" speed="15.57" angle="186.49" x="1912.79" y="2614.43"/>
    </timestep>
    <timestep time="125.00">
        <vehicle id="BUS3" eclass="HBEFA3/PC_G_EU4" CO2="5369.85" CO="44.50" HC="0.33" NOx="2.08" PMx="0.09" fuel="1712.72" electricity="0.00" noise="67.75" route="bus_route" type="BUS" waiting="0.00" lane="166479614_0" pos="180.40" speed="16.22" angle="186.29" x="1911.00" y="2598.31"/>
    </timestep>
    <timestep time="126.00">
        <vehicle id="BUS3" eclass="HBEFA3/PC_G_EU4" CO2="4760.13" CO="30.05" HC="0.25" NOx="1.78" PMx="0.07" fuel="1518.26" electricity="0.00" noise="67.58" route="bus_route" type="BUS" waiting="0.00" lane="166479614_0" pos="197.11" speed="16.71" angle="184.28" x="1909.75" y="2581.66"/>
    </timestep>
    <timestep time="127.00">
        <vehicle id="BUS3" eclass="HBEFA3/PC_G_EU4" CO2="4573.26" CO="24.72" HC="0.22" NOx="1.68" PMx="0.07" fuel="1458.65" electricity="0.00" noise="67.67" route="bus_route" type="BUS" waiting="0.00" lane="166479614_0" pos="214.23" speed="17.13" angle="184.28" x="1908.48" y="2564.59"/>
    </timestep>
    <timestep time="128.00">
        <vehicle id="BUS3" eclass="HBEFA3/PC_G_EU4" CO2="5033.81" CO="32.65" HC="0.27" NOx="1.88" PMx="0.08" fuel="1605.54" electricity="0.00" noise="68.15" route="bus_route" type="BUS" waiting="0.00" lane="166479614_1" pos="231.85" speed="17.62" angle="183.79" x="1910.46" y="2546.35"/>
    </timestep>
    <timestep time="129.00">
        <vehicle id="BUS3" eclass="HBEFA3/PC_G_EU4" CO2="5030.89" CO="31.31" HC="0.26" NOx="1.87" PMx="0.08" fuel="1604.61" electricity="0.00" noise="68.36" route="bus_route" type="BUS" waiting="0.00" lane="166479614_1" pos="249.94" speed="18.08" angle="183.79" x="1909.26" y="2528.29"/>
    </timestep>
    <timestep time="130.00">
        <vehicle id="BUS3" eclass="HBEFA3/PC_G_EU4" CO2="0.00" CO="0.00" HC="0.00" NOx="0.00" PMx="0.00" fuel="0.00" electricity="0.00" noise="61.17" route="bus_route" type="BUS" waiting="0.00" lane=":cluster_1779258548_1779258550_1779258563_1779258566_#2more_3_0" pos="5.04" speed="13.67" angle="184.22" x="1908.27" y="2514.65"/>
    </timestep>
    <timestep time="131.00">
        <vehicle id="BUS3" eclass="HBEFA3/PC_G_EU4" CO2="0.00" CO="0.00" HC="0.00" NOx="0.00" PMx="0.00" fuel="0.00" electricity="0.00" noise="56.38" route="bus_route" type="BUS" waiting="0.00" lane=":cluster_1779258548_1779258550_1779258563_1779258566_#2more_3_0" pos="14.50" speed="9.47" angle="185.00" x="1907.43" y="2505.22"/>
    </timestep>
    <timestep time="132.00">
        <vehicle id="BUS3" eclass="HBEFA3/PC_G_EU4" CO2="0.00" CO="0.00" HC="0.00" NOx="0.00" PMx="0.00" fuel="0.00" electricity="0.00" noise="49.14" route="bus_route" type="BUS" waiting="0.00" lane=":cluster_1779258548_1779258550_1779258563_1779258566_#2more_3_0" pos="19.71" speed="5.21" angle="185.14" x="1906.97" y="2500.03"/>
    </timestep>
    <timestep time="133.00">
        <vehicle id="BUS3" eclass="HBEFA3/PC_G_EU4" CO2="3208.57" CO="86.99" HC="0.47" NOx="1.32" PMx="0.05" fuel="1023.41" electricity="0.00" noise="61.68" route="bus_route" type="BUS" waiting="0.00" lane=":cluster_1779258548_1779258550_1779258563_1779258566_#2more_19_0" pos="5.07" speed="5.91" angle="184.49" x="1906.57" y="2494.14"/>
    </timestep>
    <timestep time="134.00">
        <vehicle id="BUS3" eclass="HBEFA3/PC_G_EU4" CO2="3229.01" CO="79.26" HC="0.43" NOx="1.31" PMx="0.05" fuel="1029.93" electricity="0.00" noise="61.85" route="bus_route" type="BUS" waiting="0.00" lane=":cluster_1779258548_1779258550_1779258563_1779258566_#2more_19_0" pos="11.63" speed="6.56" angle="183.09" x="1906.29" y="2487.59"/>
    </timestep>
    <timestep time="135.00">
        <vehicle id="BUS3" eclass="HBEFA3/PC_G_EU4" CO2="3120.45" CO="70.43" HC="0.39" NOx="1.25" PMx="0.05" fuel="995.30" electricity="0.00" noise="61.77" route="bus_route" type="BUS" waiting="0.00" lane="166481853_1" pos="0.36" speed="7.11" angle="180.60" x="1906.34" y="2480.47"/>
    </timestep>
    <timestep time="136.00">
        <vehicle id="BUS3" eclass="HBEFA3/PC_G_EU4" CO2="3528.29" CO="70.75" HC="0.40" NOx="1.42" PMx="0.06" fuel="1125.38" electricity="0.00" noise="62.78" route="bus_route" type="BUS" waiting="0.00" lane="166481853_1" pos="8.18" speed="7.82" angle="177.05" x="1906.92" y="2472.53"/>
    </timestep>
    <timestep time="137.00">
        <vehicle id="BUS3" eclass="HBEFA3/PC_G_EU4" CO2="3797.93" CO="68.03" HC="0.40" NOx="1.53" PMx="0.06" fuel="1211.38" electricity="0.00" noise="63.44" route="bus_route" type="BUS" waiting="0.00" lane="166481853_1" pos="16.76" speed="8.58" angle="175.78" x="1907.57" y="2463.81"/>
    </timestep>
    <timestep time="138.00">
        <vehicle id="BUS3" eclass="HBEFA3/PC_G_EU4" CO2="3820.30" CO="61.23" HC="0.37" NOx="1.52" PMx="0.06" fuel="1218.51" electricity="0.00" noise="63.67" route="bus_route" type="BUS" waiting="0.00" lane="166481853_1" pos="26.05" speed="9.29" angle="175.78" x="1908.26" y="2454.37"/>
    </timestep>
    <timestep time="139.00">
        <vehicle id="BUS3" eclass="HBEFA3/PC_G_EU4" CO2="3476.66" CO="48.98" HC="0.30" NOx="1.34" PMx="0.05" fuel="1108.91" electricity="0.00" noise="63.37" route="bus_route" type="BUS" waiting="0.00" lane="166481853_1" pos="35.88" speed="9.83" angle="176.09" x="1908.93" y="2444.38"/>
    </timestep>
    <timestep time="140.00">
        <vehicle id="BUS3" eclass="HBEFA3/PC_G_EU4" CO2="3781.83" CO="49.65" HC="0.31" NOx="1.47" PMx="0.06" fuel="1206.24" electricity="0.00" noise="64.01" route="bus_route" type="BUS" waiting="0.00" lane="166481853_1" pos="46.31" speed="10.43" angle="180.19" x="1908.84" y="2433.74"/>
    </timestep>
    <timestep time="141.00">
        <vehicle id="BUS3" eclass="HBEFA3/PC_G_EU4" CO2="4096.90" CO="50.31" HC="0.32" NOx="1.60" PMx="0.06" fuel="1306.73" electricity="0.00" noise="64.64" route="bus_route" type="BUS" waiting="0.00" lane="166481853_1" pos="57.42" speed="11.11" angle="180.49" x="1908.74" y="2422.43"/>
    </timestep>
    <timestep time="142.00">
        <vehicle id="BUS3" eclass="HBEFA3/PC_G_EU4" CO2="4229.29" CO="47.63" HC="0.31" NOx="1.65" PMx="0.06" fuel="1348.95" electricity="0.00" noise="65.04" route="bus_route" type="BUS" waiting="0.00" lane="166481853_1" pos="69.19" speed="11.77" angle="180.23" x="1908.70" y="2410.43"/>
    </timestep>
    <timestep time="143.00">
        <vehicle id="BUS3" eclass="HBEFA3/PC_G_EU4" CO2="0.00" CO="0.00" HC="0.00" NOx="0.00" PMx="0.00" fuel="0.00" electricity="0.00" noise="55.00" route="bus_route" type="BUS" waiting="0.00" lane="166481853_1" pos="77.54" speed="8.35" angle="178.23" x="1909.05" y="2401.93"/>
    </timestep>
    <timestep time="144.00">
        <vehicle id="BUS3" eclass="HBEFA3/PC_G_EU4" CO2="0.00" CO="0.00" HC="0.00" NOx="0.00" PMx="0.00" fuel="0.00" electricity="0.00" noise="46.00" route="bus_route" type="BUS" waiting="0.00" lane="166481853_1" pos="81.46" speed="3.92" angle="177.61" x="1909.22" y="2397.94"/>
    </timestep>
    <timestep time="145.00">
        <vehicle id="BUS3" eclass="HBEFA3/PC_G_EU4" CO2="2470.25" CO="159.16" HC="0.78" NOx="1.13" PMx="0.06" fuel="787.95" electricity="0.00" noise="39.35" route="bus_route" type="BUS" waiting="0.00" lane="166481853_1" pos="81.60" speed="0.14" angle="177.61" x="1909.22" y="2397.80"/>
    </timestep>
    <timestep time="146.00">
        <vehicle id="BUS3" eclass="HBEFA3/PC_G_EU4" CO2="2624.01" CO="164.69" HC="0.81" NOx="1.20" PMx="0.07" fuel="837.00" electricity="0.00" noise="55.35" route="bus_route" type="BUS" waiting="1.00" lane="166481853_1" pos="81.61" speed="0.00" angle="177.61" x="1909.22" y="2397.79"/>
    </timestep>
    <timestep time="147.00">
        <vehicle id="BUS3" eclass="HBEFA3/PC_G_EU4" CO2="2624.66" CO="164.77" HC="0.81" NOx="1.20" PMx="0.07" fuel="837.20" electricity="0.00" noise="55.92" route="bus_route" type="BUS" waiting="2.00" lane="166481853_1" pos="81.61" speed="0.00" angle="177.61" x="1909.22" y="2397.79"/>
    </timestep>
    <timestep time="148.00">
        <vehicle id="BUS3" eclass="HBEFA3/PC_G_EU4" CO2="2624.69" CO="164.77" HC="0.81" NOx="1.20" PMx="0.07" fuel="837.21" electricity="0.00" noise="55.94" route="bus_route" type="BUS" waiting="3.00" lane="166481853_1" pos="81.61" speed="0.00" angle="177.61" x="1909.22" y="2397.79"/>
    </timestep>
    <timestep time="149.00">
        <vehicle id="BUS3" eclass="HBEFA3/PC_G_EU4" CO2="2624.72" CO="164.78" HC="0.81" NOx="1.20" PMx="0.07" fuel="837.22" electricity="0.00" noise="55.94" route="bus_route" type="BUS" waiting="4.00" lane="166481853_1" pos="81.61" speed="0.00" angle="177.61" x="1909.22" y="2397.79"/>
    </timestep>
    <timestep time="150.00">
        <vehicle id="BUS3" eclass="HBEFA3/PC_G_EU4" CO2="2624.72" CO="164.78" HC="0.81" NOx="1.20" PMx="0.07" fuel="837.22" electricity="0.00" noise="55.94" route="bus_route" type="BUS" waiting="5.00" lane="166481853_1" pos="81.61" speed="0.00" angle="177.61" x="1909.22" y="2397.79"/>
    </timestep>
    <timestep time="151.00">
        <vehicle id="BUS3" eclass="HBEFA3/PC_G_EU4" CO2="2624.72" CO="164.78" HC="0.81" NOx="1.20" PMx="0.07" fuel="837.22" electricity="0.00" noise="55.94" route="bus_route" type="BUS" waiting="6.00" lane="166481853_1" pos="81.61" speed="0.00" angle="177.61" x="1909.22" y="2397.79"/>
    </timestep>
    <timestep time="152.00">
        <vehicle id="BUS3" eclass="HBEFA3/PC_G_EU4" CO2="2624.72" CO="164.78" HC="0.81" NOx="1.20" PMx="0.07" fuel="837.22" electricity="0.00" noise="55.94" route="bus_route" type="BUS" waiting="7.00" lane="166481853_1" pos="81.61" speed="0.00" angle="177.61" x="1909.22" y="2397.79"/>
    </timestep>
    <timestep time="153.00">
        <vehicle id="BUS3" eclass="HBEFA3/PC_G_EU4" CO2="2624.72" CO="164.78" HC="0.81" NOx="1.20" PMx="0.07" fuel="837.22" electricity="0.00" noise="55.94" route="bus_route" type="BUS" waiting="8.00" lane="166481853_1" pos="81.61" speed="0.00" angle="177.61" x="1909.22" y="2397.79"/>
    </timestep>
    <timestep time="154.00">